4000
Atoms. Timestep: 0
C 0.0000 0.0000 0.0000
C 0.0000 0.0000 0.3400
C 0.0000 0.0000 0.6800
C 0.0000 0.0000 1.0200
C 0.0000 0.0000 1.3600
C 0.0000 0.0000 1.7000
C 0.0000 0.0000 2.0400
C 0.0000 0.0000 2.3800
C 0.0000 0.0000 2.7200
C 0.0000 0.0000 3.0600
C 0.0000 0.0000 3.4000
C 0.0000 0.0000 3.7400
C 0.0000 0.0000 4.0800
C 0.0000 0.0000 4.4200
C 0.0000 0.0000 4.7600
C 0.0000 0.0000 5.1000
C 0.0000 0.0000 5.4400
C 0.0000 0.0000 5.7800
C 0.0000 0.0000 6.1200
C 0.0000 0.0000 6.4600
C 0.0000 0.0000 6.8000
C 0.0000 0.0000 7.1400
C 0.0000 0.0000 7.4800
C 0.0000 0.0000 7.8200
C 0.0000 0.0000 8.1600
C 0.0000 0.0000 8.5000
C 0.0000 0.0000 8.8400
C 0.0000 0.0000 9.1800
C 0.0000 0.0000 9.5200
C 0.0000 0.0000 9.8600
C 0.0000 0.0000 10.2000
C 0.0000 0.0000 10.5400
C 0.0000 0.0000 10.8800
C 0.0000 0.0000 11.2200
C 0.0000 0.0000 11.5600
C 0.0000 0.0000 11.9000
C 0.0000 0.0000 12.2400
C 0.0000 0.0000 12.5800
C 0.0000 0.0000 12.9200
C 0.0000 0.0000 13.2600
C 0.0000 0.0000 13.6000
C 0.0000 0.0000 13.9400
C 0.0000 0.0000 14.2800
C 0.0000 0.0000 14.6200
C 0.0000 0.0000 14.9600
C 0.0000 0.0000 15.3000
C 0.0000 0.0000 15.6400
C 0.0000 0.0000 15.9800
C 0.0000 0.0000 16.3200
C 0.0000 0.0000 16.6600
C 0.0000 0.0000 17.0000
C 0.0000 0.0000 17.3400
C 0.0000 0.0000 17.6800
C 0.0000 0.0000 18.0200
C 0.0000 0.0000 18.3600
C 0.0000 0.0000 18.7000
C 0.0000 0.0000 19.0400
C 0.0000 0.0000 19.3800
C 0.0000 0.0000 19.7200
C 0.0000 0.0000 20.0600
C 0.0000 0.0000 20.4000
C 0.0000 0.0000 20.7400
C 0.0000 0.0000 21.0800
C 0.0000 0.0000 21.4200
C 0.0000 0.0000 21.7600
C 0.0000 0.0000 22.1000
C 0.0000 0.0000 22.4400
C 0.0000 0.0000 22.7800
C 0.0000 0.0000 23.1200
C 0.0000 0.0000 23.4600
C 0.0000 0.0000 23.8000
C 0.0000 0.0000 24.1400
C 0.0000 0.0000 24.4800
C 0.0000 0.0000 24.8200
C 0.0000 0.0000 25.1600
C 0.0000 0.0000 25.5000
C 0.0000 0.0000 25.8400
C 0.0000 0.0000 26.1800
C 0.0000 0.0000 26.5200
C 0.0000 0.0000 26.8600
C 0.0000 0.0000 27.2000
C 0.0000 0.0000 27.5400
C 0.0000 0.0000 27.8800
C 0.0000 0.0000 28.2200
C 0.0000 0.0000 28.5600
C 0.0000 0.0000 28.9000
C 0.0000 0.0000 29.2400
C 0.0000 0.0000 29.5800
C 0.0000 0.0000 29.9200
C 0.0000 0.0000 30.2600
C 0.0000 0.0000 30.6000
C 0.0000 0.0000 30.9400
C 0.0000 0.0000 31.2800
C 0.0000 0.0000 31.6200
C 0.0000 0.0000 31.9600
C 0.0000 0.0000 32.3000
C 0.0000 0.0000 32.6400
C 0.0000 0.0000 32.9800
C 0.0000 0.0000 33.3200
C 0.0000 0.0000 33.6600
C 0.0000 0.0000 34.0000
C 0.0000 0.0000 34.3400
C 0.0000 0.0000 34.6800
C 0.0000 0.0000 35.0200
C 0.0000 0.0000 35.3600
C 0.0000 0.0000 35.7000
C 0.0000 0.0000 36.0400
C 0.0000 0.0000 36.3800
C 0.0000 0.0000 36.7200
C 0.0000 0.0000 37.0600
C 0.0000 0.0000 37.4000
C 0.0000 0.0000 37.7400
C 0.0000 0.0000 38.0800
C 0.0000 0.0000 38.4200
C 0.0000 0.0000 38.7600
C 0.0000 0.0000 39.1000
C 0.0000 0.0000 39.4400
C 0.0000 0.0000 39.7800
C 0.0000 0.0000 40.1200
C 0.0000 0.0000 40.4600
C 0.0000 0.0000 40.8000
C 0.0000 0.0000 41.1400
C 0.0000 0.0000 41.4800
C 0.0000 0.0000 41.8200
C 0.0000 0.0000 42.1600
C 0.0000 0.0000 42.5000
C 0.0000 0.0000 42.8400
C 0.0000 0.0000 43.1800
C 0.0000 0.0000 43.5200
C 0.0000 0.0000 43.8600
C 0.0000 0.0000 44.2000
C 0.0000 0.0000 44.5400
C 0.0000 0.0000 44.8800
C 0.0000 0.0000 45.2200
C 0.0000 0.0000 45.5600
C 0.0000 0.0000 45.9000
C 0.0000 0.0000 46.2400
C 0.0000 0.0000 46.5800
C 0.0000 0.0000 46.9200
C 0.0000 0.0000 47.2600
C 0.0000 0.0000 47.6000
C 0.0000 0.0000 47.9400
C 0.0000 0.0000 48.2800
C 0.0000 0.0000 48.6200
C 0.0000 0.0000 48.9600
C 0.0000 0.0000 49.3000
C 0.0000 0.0000 49.6400
C 0.0000 0.0000 49.9800
C 0.0000 0.0000 50.3200
C 0.0000 0.0000 50.6600
C 0.0000 0.0000 51.0000
C 0.0000 0.0000 51.3400
C 0.0000 0.0000 51.6800
C 0.0000 0.0000 52.0200
C 0.0000 0.0000 52.3600
C 0.0000 0.0000 52.7000
C 0.0000 0.0000 53.0400
C 0.0000 0.0000 53.3800
C 0.0000 0.0000 53.7200
C 0.0000 0.0000 54.0600
C 0.0000 0.0000 54.4000
C 0.0000 0.0000 54.7400
C 0.0000 0.0000 55.0800
C 0.0000 0.0000 55.4200
C 0.0000 0.0000 55.7600
C 0.0000 0.0000 56.1000
C 0.0000 0.0000 56.4400
C 0.0000 0.0000 56.7800
C 0.0000 0.0000 57.1200
C 0.0000 0.0000 57.4600
C 0.0000 0.0000 57.8000
C 0.0000 0.0000 58.1400
C 0.0000 0.0000 58.4800
C 0.0000 0.0000 58.8200
C 0.0000 0.0000 59.1600
C 0.0000 0.0000 59.5000
C 0.0000 0.0000 59.8400
C 0.0000 0.0000 60.1800
C 0.0000 0.0000 60.5200
C 0.0000 0.0000 60.8600
C 0.0000 0.0000 61.2000
C 0.0000 0.0000 61.5400
C 0.0000 0.0000 61.8800
C 0.0000 0.0000 62.2200
C 0.0000 0.0000 62.5600
C 0.0000 0.0000 62.9000
C 0.0000 0.0000 63.2400
C 0.0000 0.0000 63.5800
C 0.0000 0.0000 63.9200
C 0.0000 0.0000 64.2600
C 0.0000 0.0000 64.6000
C 0.0000 0.0000 64.9400
C 0.0000 0.0000 65.2800
C 0.0000 0.0000 65.6200
C 0.0000 0.0000 65.9600
C 0.0000 0.0000 66.3000
C 0.0000 0.0000 66.6400
C 0.0000 0.0000 66.9800
C 0.0000 0.0000 67.3200
C 0.0000 0.0000 67.6600
C 0.0000 0.0000 68.0000
C 0.0000 0.0000 68.3400
C 0.0000 0.0000 68.6800
C 0.0000 0.0000 69.0200
C 0.0000 0.0000 69.3600
C 0.0000 0.0000 69.7000
C 0.0000 0.0000 70.0400
C 0.0000 0.0000 70.3800
C 0.0000 0.0000 70.7200
C 0.0000 0.0000 71.0600
C 0.0000 0.0000 71.4000
C 0.0000 0.0000 71.7400
C 0.0000 0.0000 72.0800
C 0.0000 0.0000 72.4200
C 0.0000 0.0000 72.7600
C 0.0000 0.0000 73.1000
C 0.0000 0.0000 73.4400
C 0.0000 0.0000 73.7800
C 0.0000 0.0000 74.1200
C 0.0000 0.0000 74.4600
C 0.0000 0.0000 74.8000
C 0.0000 0.0000 75.1400
C 0.0000 0.0000 75.4800
C 0.0000 0.0000 75.8200
C 0.0000 0.0000 76.1600
C 0.0000 0.0000 76.5000
C 0.0000 0.0000 76.8400
C 0.0000 0.0000 77.1800
C 0.0000 0.0000 77.5200
C 0.0000 0.0000 77.8600
C 0.0000 0.0000 78.2000
C 0.0000 0.0000 78.5400
C 0.0000 0.0000 78.8800
C 0.0000 0.0000 79.2200
C 0.0000 0.0000 79.5600
C 0.0000 0.0000 79.9000
C 0.0000 0.0000 80.2400
C 0.0000 0.0000 80.5800
C 0.0000 0.0000 80.9200
C 0.0000 0.0000 81.2600
C 0.0000 0.0000 81.6000
C 0.0000 0.0000 81.9400
C 0.0000 0.0000 82.2800
C 0.0000 0.0000 82.6200
C 0.0000 0.0000 82.9600
C 0.0000 0.0000 83.3000
C 0.0000 0.0000 83.6400
C 0.0000 0.0000 83.9800
C 0.0000 0.0000 84.3200
C 0.0000 0.0000 84.6600
C 0.0000 0.0000 85.0000
C 0.0000 0.0000 85.3400
C 0.0000 0.0000 85.6800
C 0.0000 0.0000 86.0200
C 0.0000 0.0000 86.3600
C 0.0000 0.0000 86.7000
C 0.0000 0.0000 87.0400
C 0.0000 0.0000 87.3800
C 0.0000 0.0000 87.7200
C 0.0000 0.0000 88.0600
C 0.0000 0.0000 88.4000
C 0.0000 0.0000 88.7400
C 0.0000 0.0000 89.0800
C 0.0000 0.0000 89.4200
C 0.0000 0.0000 89.7600
C 0.0000 0.0000 90.1000
C 0.0000 0.0000 90.4400
C 0.0000 0.0000 90.7800
C 0.0000 0.0000 91.1200
C 0.0000 0.0000 91.4600
C 0.0000 0.0000 91.8000
C 0.0000 0.0000 92.1400
C 0.0000 0.0000 92.4800
C 0.0000 0.0000 92.8200
C 0.0000 0.0000 93.1600
C 0.0000 0.0000 93.5000
C 0.0000 0.0000 93.8400
C 0.0000 0.0000 94.1800
C 0.0000 0.0000 94.5200
C 0.0000 0.0000 94.8600
C 0.0000 0.0000 95.2000
C 0.0000 0.0000 95.5400
C 0.0000 0.0000 95.8800
C 0.0000 0.0000 96.2200
C 0.0000 0.0000 96.5600
C 0.0000 0.0000 96.9000
C 0.0000 0.0000 97.2400
C 0.0000 0.0000 97.5800
C 0.0000 0.0000 97.9200
C 0.0000 0.0000 98.2600
C 0.0000 0.0000 98.6000
C 0.0000 0.0000 98.9400
C 0.0000 0.0000 99.2800
C 0.0000 0.0000 99.6200
C 0.0000 0.0000 99.9600
C 0.0000 0.0000 100.3000
C 0.0000 0.0000 100.6400
C 0.0000 0.0000 100.9800
C 0.0000 0.0000 101.3200
C 0.0000 0.0000 101.6600
C 0.0000 0.0000 102.0000
C 0.0000 0.0000 102.3400
C 0.0000 0.0000 102.6800
C 0.0000 0.0000 103.0200
C 0.0000 0.0000 103.3600
C 0.0000 0.0000 103.7000
C 0.0000 0.0000 104.0400
C 0.0000 0.0000 104.3800
C 0.0000 0.0000 104.7200
C 0.0000 0.0000 105.0600
C 0.0000 0.0000 105.4000
C 0.0000 0.0000 105.7400
C 0.0000 0.0000 106.0800
C 0.0000 0.0000 106.4200
C 0.0000 0.0000 106.7600
C 0.0000 0.0000 107.1000
C 0.0000 0.0000 107.4400
C 0.0000 0.0000 107.7800
C 0.0000 0.0000 108.1200
C 0.0000 0.0000 108.4600
C 0.0000 0.0000 108.8000
C 0.0000 0.0000 109.1400
C 0.0000 0.0000 109.4800
C 0.0000 0.0000 109.8200
C 0.0000 0.0000 110.1600
C 0.0000 0.0000 110.5000
C 0.0000 0.0000 110.8400
C 0.0000 0.0000 111.1800
C 0.0000 0.0000 111.5200
C 0.0000 0.0000 111.8600
C 0.0000 0.0000 112.2000
C 0.0000 0.0000 112.5400
C 0.0000 0.0000 112.8800
C 0.0000 0.0000 113.2200
C 0.0000 0.0000 113.5600
C 0.0000 0.0000 113.9000
C 0.0000 0.0000 114.2400
C 0.0000 0.0000 114.5800
C 0.0000 0.0000 114.9200
C 0.0000 0.0000 115.2600
C 0.0000 0.0000 115.6000
C 0.0000 0.0000 115.9400
C 0.0000 0.0000 116.2800
C 0.0000 0.0000 116.6200
C 0.0000 0.0000 116.9600
C 0.0000 0.0000 117.3000
C 0.0000 0.0000 117.6400
C 0.0000 0.0000 117.9800
C 0.0000 0.0000 118.3200
C 0.0000 0.0000 118.6600
C 0.0000 0.0000 119.0000
C 0.0000 0.0000 119.3400
C 0.0000 0.0000 119.6800
C 0.0000 0.0000 120.0200
C 0.0000 0.0000 120.3600
C 0.0000 0.0000 120.7000
C 0.0000 0.0000 121.0400
C 0.0000 0.0000 121.3800
C 0.0000 0.0000 121.7200
C 0.0000 0.0000 122.0600
C 0.0000 0.0000 122.4000
C 0.0000 0.0000 122.7400
C 0.0000 0.0000 123.0800
C 0.0000 0.0000 123.4200
C 0.0000 0.0000 123.7600
C 0.0000 0.0000 124.1000
C 0.0000 0.0000 124.4400
C 0.0000 0.0000 124.7800
C 0.0000 0.0000 125.1200
C 0.0000 0.0000 125.4600
C 0.0000 0.0000 125.8000
C 0.0000 0.0000 126.1400
C 0.0000 0.0000 126.4800
C 0.0000 0.0000 126.8200
C 0.0000 0.0000 127.1600
C 0.0000 0.0000 127.5000
C 0.0000 0.0000 127.8400
C 0.0000 0.0000 128.1800
C 0.0000 0.0000 128.5200
C 0.0000 0.0000 128.8600
C 0.0000 0.0000 129.2000
C 0.0000 0.0000 129.5400
C 0.0000 0.0000 129.8800
C 0.0000 0.0000 130.2200
C 0.0000 0.0000 130.5600
C 0.0000 0.0000 130.9000
C 0.0000 0.0000 131.2400
C 0.0000 0.0000 131.5800
C 0.0000 0.0000 131.9200
C 0.0000 0.0000 132.2600
C 0.0000 0.0000 132.6000
C 0.0000 0.0000 132.9400
C 0.0000 0.0000 133.2800
C 0.0000 0.0000 133.6200
C 0.0000 0.0000 133.9600
C 0.0000 0.0000 134.3000
C 0.0000 0.0000 134.6400
C 0.0000 0.0000 134.9800
C 0.0000 0.0000 135.3200
C 0.0000 0.0000 135.6600
C 0.0000 0.0000 136.0000
C 0.0000 0.0000 136.3400
C 0.0000 0.0000 136.6800
C 0.0000 0.0000 137.0200
C 0.0000 0.0000 137.3600
C 0.0000 0.0000 137.7000
C 0.0000 0.0000 138.0400
C 0.0000 0.0000 138.3800
C 0.0000 0.0000 138.7200
C 0.0000 0.0000 139.0600
C 0.0000 0.0000 139.4000
C 0.0000 0.0000 139.7400
C 0.0000 0.0000 140.0800
C 0.0000 0.0000 140.4200
C 0.0000 0.0000 140.7600
C 0.0000 0.0000 141.1000
C 0.0000 0.0000 141.4400
C 0.0000 0.0000 141.7800
C 0.0000 0.0000 142.1200
C 0.0000 0.0000 142.4600
C 0.0000 0.0000 142.8000
C 0.0000 0.0000 143.1400
C 0.0000 0.0000 143.4800
C 0.0000 0.0000 143.8200
C 0.0000 0.0000 144.1600
C 0.0000 0.0000 144.5000
C 0.0000 0.0000 144.8400
C 0.0000 0.0000 145.1800
C 0.0000 0.0000 145.5200
C 0.0000 0.0000 145.8600
C 0.0000 0.0000 146.2000
C 0.0000 0.0000 146.5400
C 0.0000 0.0000 146.8800
C 0.0000 0.0000 147.2200
C 0.0000 0.0000 147.5600
C 0.0000 0.0000 147.9000
C 0.0000 0.0000 148.2400
C 0.0000 0.0000 148.5800
C 0.0000 0.0000 148.9200
C 0.0000 0.0000 149.2600
C 0.0000 0.0000 149.6000
C 0.0000 0.0000 149.9400
C 0.0000 0.0000 150.2800
C 0.0000 0.0000 150.6200
C 0.0000 0.0000 150.9600
C 0.0000 0.0000 151.3000
C 0.0000 0.0000 151.6400
C 0.0000 0.0000 151.9800
C 0.0000 0.0000 152.3200
C 0.0000 0.0000 152.6600
C 0.0000 0.0000 153.0000
C 0.0000 0.0000 153.3400
C 0.0000 0.0000 153.6800
C 0.0000 0.0000 154.0200
C 0.0000 0.0000 154.3600
C 0.0000 0.0000 154.7000
C 0.0000 0.0000 155.0400
C 0.0000 0.0000 155.3800
C 0.0000 0.0000 155.7200
C 0.0000 0.0000 156.0600
C 0.0000 0.0000 156.4000
C 0.0000 0.0000 156.7400
C 0.0000 0.0000 157.0800
C 0.0000 0.0000 157.4200
C 0.0000 0.0000 157.7600
C 0.0000 0.0000 158.1000
C 0.0000 0.0000 158.4400
C 0.0000 0.0000 158.7800
C 0.0000 0.0000 159.1200
C 0.0000 0.0000 159.4600
C 0.0000 0.0000 159.8000
C 0.0000 0.0000 160.1400
C 0.0000 0.0000 160.4800
C 0.0000 0.0000 160.8200
C 0.0000 0.0000 161.1600
C 0.0000 0.0000 161.5000
C 0.0000 0.0000 161.8400
C 0.0000 0.0000 162.1800
C 0.0000 0.0000 162.5200
C 0.0000 0.0000 162.8600
C 0.0000 0.0000 163.2000
C 0.0000 0.0000 163.5400
C 0.0000 0.0000 163.8800
C 0.0000 0.0000 164.2200
C 0.0000 0.0000 164.5600
C 0.0000 0.0000 164.9000
C 0.0000 0.0000 165.2400
C 0.0000 0.0000 165.5800
C 0.0000 0.0000 165.9200
C 0.0000 0.0000 166.2600
C 0.0000 0.0000 166.6000
C 0.0000 0.0000 166.9400
C 0.0000 0.0000 167.2800
C 0.0000 0.0000 167.6200
C 0.0000 0.0000 167.9600
C 0.0000 0.0000 168.3000
C 0.0000 0.0000 168.6400
C 0.0000 0.0000 168.9800
C 0.0000 0.0000 169.3200
C 0.0000 0.0000 169.6600
C 0.0000 0.0000 170.0000
C 0.0000 0.0000 170.3400
C 0.0000 0.0000 170.6800
C 0.0000 0.0000 171.0200
C 0.0000 0.0000 171.3600
C 0.0000 0.0000 171.7000
C 0.0000 0.0000 172.0400
C 0.0000 0.0000 172.3800
C 0.0000 0.0000 172.7200
C 0.0000 0.0000 173.0600
C 0.0000 0.0000 173.4000
C 0.0000 0.0000 173.7400
C 0.0000 0.0000 174.0800
C 0.0000 0.0000 174.4200
C 0.0000 0.0000 174.7600
C 0.0000 0.0000 175.1000
C 0.0000 0.0000 175.4400
C 0.0000 0.0000 175.7800
C 0.0000 0.0000 176.1200
C 0.0000 0.0000 176.4600
C 0.0000 0.0000 176.8000
C 0.0000 0.0000 177.1400
C 0.0000 0.0000 177.4800
C 0.0000 0.0000 177.8200
C 0.0000 0.0000 178.1600
C 0.0000 0.0000 178.5000
C 0.0000 0.0000 178.8400
C 0.0000 0.0000 179.1800
C 0.0000 0.0000 179.5200
C 0.0000 0.0000 179.8600
C 0.0000 0.0000 180.2000
C 0.0000 0.0000 180.5400
C 0.0000 0.0000 180.8800
C 0.0000 0.0000 181.2200
C 0.0000 0.0000 181.5600
C 0.0000 0.0000 181.9000
C 0.0000 0.0000 182.2400
C 0.0000 0.0000 182.5800
C 0.0000 0.0000 182.9200
C 0.0000 0.0000 183.2600
C 0.0000 0.0000 183.6000
C 0.0000 0.0000 183.9400
C 0.0000 0.0000 184.2800
C 0.0000 0.0000 184.6200
C 0.0000 0.0000 184.9600
C 0.0000 0.0000 185.3000
C 0.0000 0.0000 185.6400
C 0.0000 0.0000 185.9800
C 0.0000 0.0000 186.3200
C 0.0000 0.0000 186.6600
C 0.0000 0.0000 187.0000
C 0.0000 0.0000 187.3400
C 0.0000 0.0000 187.6800
C 0.0000 0.0000 188.0200
C 0.0000 0.0000 188.3600
C 0.0000 0.0000 188.7000
C 0.0000 0.0000 189.0400
C 0.0000 0.0000 189.3800
C 0.0000 0.0000 189.7200
C 0.0000 0.0000 190.0600
C 0.0000 0.0000 190.4000
C 0.0000 0.0000 190.7400
C 0.0000 0.0000 191.0800
C 0.0000 0.0000 191.4200
C 0.0000 0.0000 191.7600
C 0.0000 0.0000 192.1000
C 0.0000 0.0000 192.4400
C 0.0000 0.0000 192.7800
C 0.0000 0.0000 193.1200
C 0.0000 0.0000 193.4600
C 0.0000 0.0000 193.8000
C 0.0000 0.0000 194.1400
C 0.0000 0.0000 194.4800
C 0.0000 0.0000 194.8200
C 0.0000 0.0000 195.1600
C 0.0000 0.0000 195.5000
C 0.0000 0.0000 195.8400
C 0.0000 0.0000 196.1800
C 0.0000 0.0000 196.5200
C 0.0000 0.0000 196.8600
C 0.0000 0.0000 197.2000
C 0.0000 0.0000 197.5400
C 0.0000 0.0000 197.8800
C 0.0000 0.0000 198.2200
C 0.0000 0.0000 198.5600
C 0.0000 0.0000 198.9000
C 0.0000 0.0000 199.2400
C 0.0000 0.0000 199.5800
C 0.0000 0.0000 199.9200
C 0.0000 0.0000 200.2600
C 0.0000 0.0000 200.6000
C 0.0000 0.0000 200.9400
C 0.0000 0.0000 201.2800
C 0.0000 0.0000 201.6200
C 0.0000 0.0000 201.9600
C 0.0000 0.0000 202.3000
C 0.0000 0.0000 202.6400
C 0.0000 0.0000 202.9800
C 0.0000 0.0000 203.3200
C 0.0000 0.0000 203.6600
C 0.0000 0.0000 204.0000
C 0.0000 0.0000 204.3400
C 0.0000 0.0000 204.6800
C 0.0000 0.0000 205.0200
C 0.0000 0.0000 205.3600
C 0.0000 0.0000 205.7000
C 0.0000 0.0000 206.0400
C 0.0000 0.0000 206.3800
C 0.0000 0.0000 206.7200
C 0.0000 0.0000 207.0600
C 0.0000 0.0000 207.4000
C 0.0000 0.0000 207.7400
C 0.0000 0.0000 208.0800
C 0.0000 0.0000 208.4200
C 0.0000 0.0000 208.7600
C 0.0000 0.0000 209.1000
C 0.0000 0.0000 209.4400
C 0.0000 0.0000 209.7800
C 0.0000 0.0000 210.1200
C 0.0000 0.0000 210.4600
C 0.0000 0.0000 210.8000
C 0.0000 0.0000 211.1400
C 0.0000 0.0000 211.4800
C 0.0000 0.0000 211.8200
C 0.0000 0.0000 212.1600
C 0.0000 0.0000 212.5000
C 0.0000 0.0000 212.8400
C 0.0000 0.0000 213.1800
C 0.0000 0.0000 213.5200
C 0.0000 0.0000 213.8600
C 0.0000 0.0000 214.2000
C 0.0000 0.0000 214.5400
C 0.0000 0.0000 214.8800
C 0.0000 0.0000 215.2200
C 0.0000 0.0000 215.5600
C 0.0000 0.0000 215.9000
C 0.0000 0.0000 216.2400
C 0.0000 0.0000 216.5800
C 0.0000 0.0000 216.9200
C 0.0000 0.0000 217.2600
C 0.0000 0.0000 217.6000
C 0.0000 0.0000 217.9400
C 0.0000 0.0000 218.2800
C 0.0000 0.0000 218.6200
C 0.0000 0.0000 218.9600
C 0.0000 0.0000 219.3000
C 0.0000 0.0000 219.6400
C 0.0000 0.0000 219.9800
C 0.0000 0.0000 220.3200
C 0.0000 0.0000 220.6600
C 0.0000 0.0000 221.0000
C 0.0000 0.0000 221.3400
C 0.0000 0.0000 221.6800
C 0.0000 0.0000 222.0200
C 0.0000 0.0000 222.3600
C 0.0000 0.0000 222.7000
C 0.0000 0.0000 223.0400
C 0.0000 0.0000 223.3800
C 0.0000 0.0000 223.7200
C 0.0000 0.0000 224.0600
C 0.0000 0.0000 224.4000
C 0.0000 0.0000 224.7400
C 0.0000 0.0000 225.0800
C 0.0000 0.0000 225.4200
C 0.0000 0.0000 225.7600
C 0.0000 0.0000 226.1000
C 0.0000 0.0000 226.4400
C 0.0000 0.0000 226.7800
C 0.0000 0.0000 227.1200
C 0.0000 0.0000 227.4600
C 0.0000 0.0000 227.8000
C 0.0000 0.0000 228.1400
C 0.0000 0.0000 228.4800
C 0.0000 0.0000 228.8200
C 0.0000 0.0000 229.1600
C 0.0000 0.0000 229.5000
C 0.0000 0.0000 229.8400
C 0.0000 0.0000 230.1800
C 0.0000 0.0000 230.5200
C 0.0000 0.0000 230.8600
C 0.0000 0.0000 231.2000
C 0.0000 0.0000 231.5400
C 0.0000 0.0000 231.8800
C 0.0000 0.0000 232.2200
C 0.0000 0.0000 232.5600
C 0.0000 0.0000 232.9000
C 0.0000 0.0000 233.2400
C 0.0000 0.0000 233.5800
C 0.0000 0.0000 233.9200
C 0.0000 0.0000 234.2600
C 0.0000 0.0000 234.6000
C 0.0000 0.0000 234.9400
C 0.0000 0.0000 235.2800
C 0.0000 0.0000 235.6200
C 0.0000 0.0000 235.9600
C 0.0000 0.0000 236.3000
C 0.0000 0.0000 236.6400
C 0.0000 0.0000 236.9800
C 0.0000 0.0000 237.3200
C 0.0000 0.0000 237.6600
C 0.0000 0.0000 238.0000
C 0.0000 0.0000 238.3400
C 0.0000 0.0000 238.6800
C 0.0000 0.0000 239.0200
C 0.0000 0.0000 239.3600
C 0.0000 0.0000 239.7000
C 0.0000 0.0000 240.0400
C 0.0000 0.0000 240.3800
C 0.0000 0.0000 240.7200
C 0.0000 0.0000 241.0600
C 0.0000 0.0000 241.4000
C 0.0000 0.0000 241.7400
C 0.0000 0.0000 242.0800
C 0.0000 0.0000 242.4200
C 0.0000 0.0000 242.7600
C 0.0000 0.0000 243.1000
C 0.0000 0.0000 243.4400
C 0.0000 0.0000 243.7800
C 0.0000 0.0000 244.1200
C 0.0000 0.0000 244.4600
C 0.0000 0.0000 244.8000
C 0.0000 0.0000 245.1400
C 0.0000 0.0000 245.4800
C 0.0000 0.0000 245.8200
C 0.0000 0.0000 246.1600
C 0.0000 0.0000 246.5000
C 0.0000 0.0000 246.8400
C 0.0000 0.0000 247.1800
C 0.0000 0.0000 247.5200
C 0.0000 0.0000 247.8600
C 0.0000 0.0000 248.2000
C 0.0000 0.0000 248.5400
C 0.0000 0.0000 248.8800
C 0.0000 0.0000 249.2200
C 0.0000 0.0000 249.5600
C 0.0000 0.0000 249.9000
C 0.0000 0.0000 250.2400
C 0.0000 0.0000 250.5800
C 0.0000 0.0000 250.9200
C 0.0000 0.0000 251.2600
C 0.0000 0.0000 251.6000
C 0.0000 0.0000 251.9400
C 0.0000 0.0000 252.2800
C 0.0000 0.0000 252.6200
C 0.0000 0.0000 252.9600
C 0.0000 0.0000 253.3000
C 0.0000 0.0000 253.6400
C 0.0000 0.0000 253.9800
C 0.0000 0.0000 254.3200
C 0.0000 0.0000 254.6600
C 0.0000 0.0000 255.0000
C 0.0000 0.0000 255.3400
C 0.0000 0.0000 255.6800
C 0.0000 0.0000 256.0200
C 0.0000 0.0000 256.3600
C 0.0000 0.0000 256.7000
C 0.0000 0.0000 257.0400
C 0.0000 0.0000 257.3800
C 0.0000 0.0000 257.7200
C 0.0000 0.0000 258.0600
C 0.0000 0.0000 258.4000
C 0.0000 0.0000 258.7400
C 0.0000 0.0000 259.0800
C 0.0000 0.0000 259.4200
C 0.0000 0.0000 259.7600
C 0.0000 0.0000 260.1000
C 0.0000 0.0000 260.4400
C 0.0000 0.0000 260.7800
C 0.0000 0.0000 261.1200
C 0.0000 0.0000 261.4600
C 0.0000 0.0000 261.8000
C 0.0000 0.0000 262.1400
C 0.0000 0.0000 262.4800
C 0.0000 0.0000 262.8200
C 0.0000 0.0000 263.1600
C 0.0000 0.0000 263.5000
C 0.0000 0.0000 263.8400
C 0.0000 0.0000 264.1800
C 0.0000 0.0000 264.5200
C 0.0000 0.0000 264.8600
C 0.0000 0.0000 265.2000
C 0.0000 0.0000 265.5400
C 0.0000 0.0000 265.8800
C 0.0000 0.0000 266.2200
C 0.0000 0.0000 266.5600
C 0.0000 0.0000 266.9000
C 0.0000 0.0000 267.2400
C 0.0000 0.0000 267.5800
C 0.0000 0.0000 267.9200
C 0.0000 0.0000 268.2600
C 0.0000 0.0000 268.6000
C 0.0000 0.0000 268.9400
C 0.0000 0.0000 269.2800
C 0.0000 0.0000 269.6200
C 0.0000 0.0000 269.9600
C 0.0000 0.0000 270.3000
C 0.0000 0.0000 270.6400
C 0.0000 0.0000 270.9800
C 0.0000 0.0000 271.3200
C 0.0000 0.0000 271.6600
C 0.0000 0.0000 272.0000
C 0.0000 0.0000 272.3400
C 0.0000 0.0000 272.6800
C 0.0000 0.0000 273.0200
C 0.0000 0.0000 273.3600
C 0.0000 0.0000 273.7000
C 0.0000 0.0000 274.0400
C 0.0000 0.0000 274.3800
C 0.0000 0.0000 274.7200
C 0.0000 0.0000 275.0600
C 0.0000 0.0000 275.4000
C 0.0000 0.0000 275.7400
C 0.0000 0.0000 276.0800
C 0.0000 0.0000 276.4200
C 0.0000 0.0000 276.7600
C 0.0000 0.0000 277.1000
C 0.0000 0.0000 277.4400
C 0.0000 0.0000 277.7800
C 0.0000 0.0000 278.1200
C 0.0000 0.0000 278.4600
C 0.0000 0.0000 278.8000
C 0.0000 0.0000 279.1400
C 0.0000 0.0000 279.4800
C 0.0000 0.0000 279.8200
C 0.0000 0.0000 280.1600
C 0.0000 0.0000 280.5000
C 0.0000 0.0000 280.8400
C 0.0000 0.0000 281.1800
C 0.0000 0.0000 281.5200
C 0.0000 0.0000 281.8600
C 0.0000 0.0000 282.2000
C 0.0000 0.0000 282.5400
C 0.0000 0.0000 282.8800
C 0.0000 0.0000 283.2200
C 0.0000 0.0000 283.5600
C 0.0000 0.0000 283.9000
C 0.0000 0.0000 284.2400
C 0.0000 0.0000 284.5800
C 0.0000 0.0000 284.9200
C 0.0000 0.0000 285.2600
C 0.0000 0.0000 285.6000
C 0.0000 0.0000 285.9400
C 0.0000 0.0000 286.2800
C 0.0000 0.0000 286.6200
C 0.0000 0.0000 286.9600
C 0.0000 0.0000 287.3000
C 0.0000 0.0000 287.6400
C 0.0000 0.0000 287.9800
C 0.0000 0.0000 288.3200
C 0.0000 0.0000 288.6600
C 0.0000 0.0000 289.0000
C 0.0000 0.0000 289.3400
C 0.0000 0.0000 289.6800
C 0.0000 0.0000 290.0200
C 0.0000 0.0000 290.3600
C 0.0000 0.0000 290.7000
C 0.0000 0.0000 291.0400
C 0.0000 0.0000 291.3800
C 0.0000 0.0000 291.7200
C 0.0000 0.0000 292.0600
C 0.0000 0.0000 292.4000
C 0.0000 0.0000 292.7400
C 0.0000 0.0000 293.0800
C 0.0000 0.0000 293.4200
C 0.0000 0.0000 293.7600
C 0.0000 0.0000 294.1000
C 0.0000 0.0000 294.4400
C 0.0000 0.0000 294.7800
C 0.0000 0.0000 295.1200
C 0.0000 0.0000 295.4600
C 0.0000 0.0000 295.8000
C 0.0000 0.0000 296.1400
C 0.0000 0.0000 296.4800
C 0.0000 0.0000 296.8200
C 0.0000 0.0000 297.1600
C 0.0000 0.0000 297.5000
C 0.0000 0.0000 297.8400
C 0.0000 0.0000 298.1800
C 0.0000 0.0000 298.5200
C 0.0000 0.0000 298.8600
C 0.0000 0.0000 299.2000
C 0.0000 0.0000 299.5400
C 0.0000 0.0000 299.8800
C 0.0000 0.0000 300.2200
C 0.0000 0.0000 300.5600
C 0.0000 0.0000 300.9000
C 0.0000 0.0000 301.2400
C 0.0000 0.0000 301.5800
C 0.0000 0.0000 301.9200
C 0.0000 0.0000 302.2600
C 0.0000 0.0000 302.6000
C 0.0000 0.0000 302.9400
C 0.0000 0.0000 303.2800
C 0.0000 0.0000 303.6200
C 0.0000 0.0000 303.9600
C 0.0000 0.0000 304.3000
C 0.0000 0.0000 304.6400
C 0.0000 0.0000 304.9800
C 0.0000 0.0000 305.3200
C 0.0000 0.0000 305.6600
C 0.0000 0.0000 306.0000
C 0.0000 0.0000 306.3400
C 0.0000 0.0000 306.6800
C 0.0000 0.0000 307.0200
C 0.0000 0.0000 307.3600
C 0.0000 0.0000 307.7000
C 0.0000 0.0000 308.0400
C 0.0000 0.0000 308.3800
C 0.0000 0.0000 308.7200
C 0.0000 0.0000 309.0600
C 0.0000 0.0000 309.4000
C 0.0000 0.0000 309.7400
C 0.0000 0.0000 310.0800
C 0.0000 0.0000 310.4200
C 0.0000 0.0000 310.7600
C 0.0000 0.0000 311.1000
C 0.0000 0.0000 311.4400
C 0.0000 0.0000 311.7800
C 0.0000 0.0000 312.1200
C 0.0000 0.0000 312.4600
C 0.0000 0.0000 312.8000
C 0.0000 0.0000 313.1400
C 0.0000 0.0000 313.4800
C 0.0000 0.0000 313.8200
C 0.0000 0.0000 314.1600
C 0.0000 0.0000 314.5000
C 0.0000 0.0000 314.8400
C 0.0000 0.0000 315.1800
C 0.0000 0.0000 315.5200
C 0.0000 0.0000 315.8600
C 0.0000 0.0000 316.2000
C 0.0000 0.0000 316.5400
C 0.0000 0.0000 316.8800
C 0.0000 0.0000 317.2200
C 0.0000 0.0000 317.5600
C 0.0000 0.0000 317.9000
C 0.0000 0.0000 318.2400
C 0.0000 0.0000 318.5800
C 0.0000 0.0000 318.9200
C 0.0000 0.0000 319.2600
C 0.0000 0.0000 319.6000
C 0.0000 0.0000 319.9400
C 0.0000 0.0000 320.2800
C 0.0000 0.0000 320.6200
C 0.0000 0.0000 320.9600
C 0.0000 0.0000 321.3000
C 0.0000 0.0000 321.6400
C 0.0000 0.0000 321.9800
C 0.0000 0.0000 322.3200
C 0.0000 0.0000 322.6600
C 0.0000 0.0000 323.0000
C 0.0000 0.0000 323.3400
C 0.0000 0.0000 323.6800
C 0.0000 0.0000 324.0200
C 0.0000 0.0000 324.3600
C 0.0000 0.0000 324.7000
C 0.0000 0.0000 325.0400
C 0.0000 0.0000 325.3800
C 0.0000 0.0000 325.7200
C 0.0000 0.0000 326.0600
C 0.0000 0.0000 326.4000
C 0.0000 0.0000 326.7400
C 0.0000 0.0000 327.0800
C 0.0000 0.0000 327.4200
C 0.0000 0.0000 327.7600
C 0.0000 0.0000 328.1000
C 0.0000 0.0000 328.4400
C 0.0000 0.0000 328.7800
C 0.0000 0.0000 329.1200
C 0.0000 0.0000 329.4600
C 0.0000 0.0000 329.8000
C 0.0000 0.0000 330.1400
C 0.0000 0.0000 330.4800
C 0.0000 0.0000 330.8200
C 0.0000 0.0000 331.1600
C 0.0000 0.0000 331.5000
C 0.0000 0.0000 331.8400
C 0.0000 0.0000 332.1800
C 0.0000 0.0000 332.5200
C 0.0000 0.0000 332.8600
C 0.0000 0.0000 333.2000
C 0.0000 0.0000 333.5400
C 0.0000 0.0000 333.8800
C 0.0000 0.0000 334.2200
C 0.0000 0.0000 334.5600
C 0.0000 0.0000 334.9000
C 0.0000 0.0000 335.2400
C 0.0000 0.0000 335.5800
C 0.0000 0.0000 335.9200
C 0.0000 0.0000 336.2600
C 0.0000 0.0000 336.6000
C 0.0000 0.0000 336.9400
C 0.0000 0.0000 337.2800
C 0.0000 0.0000 337.6200
C 0.0000 0.0000 337.9600
C 0.0000 0.0000 338.3000
C 0.0000 0.0000 338.6400
C 0.0000 0.0000 338.9800
C 0.0000 0.0000 339.3200
C 0.0000 0.0000 339.6600
C 0.0000 0.0000 340.0000
C 0.0000 0.0000 340.3400
C 0.0000 0.0000 340.6800
C 0.0000 0.0000 341.0200
C 0.0000 0.0000 341.3600
C 0.0000 0.0000 341.7000
C 0.0000 0.0000 342.0400
C 0.0000 0.0000 342.3800
C 0.0000 0.0000 342.7200
C 0.0000 0.0000 343.0600
C 0.0000 0.0000 343.4000
C 0.0000 0.0000 343.7400
C 0.0000 0.0000 344.0800
C 0.0000 0.0000 344.4200
C 0.0000 0.0000 344.7600
C 0.0000 0.0000 345.1000
C 0.0000 0.0000 345.4400
C 0.0000 0.0000 345.7800
C 0.0000 0.0000 346.1200
C 0.0000 0.0000 346.4600
C 0.0000 0.0000 346.8000
C 0.0000 0.0000 347.1400
C 0.0000 0.0000 347.4800
C 0.0000 0.0000 347.8200
C 0.0000 0.0000 348.1600
C 0.0000 0.0000 348.5000
C 0.0000 0.0000 348.8400
C 0.0000 0.0000 349.1800
C 0.0000 0.0000 349.5200
C 0.0000 0.0000 349.8600
C 0.0000 0.0000 350.2000
C 0.0000 0.0000 350.5400
C 0.0000 0.0000 350.8800
C 0.0000 0.0000 351.2200
C 0.0000 0.0000 351.5600
C 0.0000 0.0000 351.9000
C 0.0000 0.0000 352.2400
C 0.0000 0.0000 352.5800
C 0.0000 0.0000 352.9200
C 0.0000 0.0000 353.2600
C 0.0000 0.0000 353.6000
C 0.0000 0.0000 353.9400
C 0.0000 0.0000 354.2800
C 0.0000 0.0000 354.6200
C 0.0000 0.0000 354.9600
C 0.0000 0.0000 355.3000
C 0.0000 0.0000 355.6400
C 0.0000 0.0000 355.9800
C 0.0000 0.0000 356.3200
C 0.0000 0.0000 356.6600
C 0.0000 0.0000 357.0000
C 0.0000 0.0000 357.3400
C 0.0000 0.0000 357.6800
C 0.0000 0.0000 358.0200
C 0.0000 0.0000 358.3600
C 0.0000 0.0000 358.7000
C 0.0000 0.0000 359.0400
C 0.0000 0.0000 359.3800
C 0.0000 0.0000 359.7200
C 0.0000 0.0000 360.0600
C 0.0000 0.0000 360.4000
C 0.0000 0.0000 360.7400
C 0.0000 0.0000 361.0800
C 0.0000 0.0000 361.4200
C 0.0000 0.0000 361.7600
C 0.0000 0.0000 362.1000
C 0.0000 0.0000 362.4400
C 0.0000 0.0000 362.7800
C 0.0000 0.0000 363.1200
C 0.0000 0.0000 363.4600
C 0.0000 0.0000 363.8000
C 0.0000 0.0000 364.1400
C 0.0000 0.0000 364.4800
C 0.0000 0.0000 364.8200
C 0.0000 0.0000 365.1600
C 0.0000 0.0000 365.5000
C 0.0000 0.0000 365.8400
C 0.0000 0.0000 366.1800
C 0.0000 0.0000 366.5200
C 0.0000 0.0000 366.8600
C 0.0000 0.0000 367.2000
C 0.0000 0.0000 367.5400
C 0.0000 0.0000 367.8800
C 0.0000 0.0000 368.2200
C 0.0000 0.0000 368.5600
C 0.0000 0.0000 368.9000
C 0.0000 0.0000 369.2400
C 0.0000 0.0000 369.5800
C 0.0000 0.0000 369.9200
C 0.0000 0.0000 370.2600
C 0.0000 0.0000 370.6000
C 0.0000 0.0000 370.9400
C 0.0000 0.0000 371.2800
C 0.0000 0.0000 371.6200
C 0.0000 0.0000 371.9600
C 0.0000 0.0000 372.3000
C 0.0000 0.0000 372.6400
C 0.0000 0.0000 372.9800
C 0.0000 0.0000 373.3200
C 0.0000 0.0000 373.6600
C 0.0000 0.0000 374.0000
C 0.0000 0.0000 374.3400
C 0.0000 0.0000 374.6800
C 0.0000 0.0000 375.0200
C 0.0000 0.0000 375.3600
C 0.0000 0.0000 375.7000
C 0.0000 0.0000 376.0400
C 0.0000 0.0000 376.3800
C 0.0000 0.0000 376.7200
C 0.0000 0.0000 377.0600
C 0.0000 0.0000 377.4000
C 0.0000 0.0000 377.7400
C 0.0000 0.0000 378.0800
C 0.0000 0.0000 378.4200
C 0.0000 0.0000 378.7600
C 0.0000 0.0000 379.1000
C 0.0000 0.0000 379.4400
C 0.0000 0.0000 379.7800
C 0.0000 0.0000 380.1200
C 0.0000 0.0000 380.4600
C 0.0000 0.0000 380.8000
C 0.0000 0.0000 381.1400
C 0.0000 0.0000 381.4800
C 0.0000 0.0000 381.8200
C 0.0000 0.0000 382.1600
C 0.0000 0.0000 382.5000
C 0.0000 0.0000 382.8400
C 0.0000 0.0000 383.1800
C 0.0000 0.0000 383.5200
C 0.0000 0.0000 383.8600
C 0.0000 0.0000 384.2000
C 0.0000 0.0000 384.5400
C 0.0000 0.0000 384.8800
C 0.0000 0.0000 385.2200
C 0.0000 0.0000 385.5600
C 0.0000 0.0000 385.9000
C 0.0000 0.0000 386.2400
C 0.0000 0.0000 386.5800
C 0.0000 0.0000 386.9200
C 0.0000 0.0000 387.2600
C 0.0000 0.0000 387.6000
C 0.0000 0.0000 387.9400
C 0.0000 0.0000 388.2800
C 0.0000 0.0000 388.6200
C 0.0000 0.0000 388.9600
C 0.0000 0.0000 389.3000
C 0.0000 0.0000 389.6400
C 0.0000 0.0000 389.9800
C 0.0000 0.0000 390.3200
C 0.0000 0.0000 390.6600
C 0.0000 0.0000 391.0000
C 0.0000 0.0000 391.3400
C 0.0000 0.0000 391.6800
C 0.0000 0.0000 392.0200
C 0.0000 0.0000 392.3600
C 0.0000 0.0000 392.7000
C 0.0000 0.0000 393.0400
C 0.0000 0.0000 393.3800
C 0.0000 0.0000 393.7200
C 0.0000 0.0000 394.0600
C 0.0000 0.0000 394.4000
C 0.0000 0.0000 394.7400
C 0.0000 0.0000 395.0800
C 0.0000 0.0000 395.4200
C 0.0000 0.0000 395.7600
C 0.0000 0.0000 396.1000
C 0.0000 0.0000 396.4400
C 0.0000 0.0000 396.7800
C 0.0000 0.0000 397.1200
C 0.0000 0.0000 397.4600
C 0.0000 0.0000 397.8000
C 0.0000 0.0000 398.1400
C 0.0000 0.0000 398.4800
C 0.0000 0.0000 398.8200
C 0.0000 0.0000 399.1600
C 0.0000 0.0000 399.5000
C 0.0000 0.0000 399.8400
C 0.0000 0.0000 400.1800
C 0.0000 0.0000 400.5200
C 0.0000 0.0000 400.8600
C 0.0000 0.0000 401.2000
C 0.0000 0.0000 401.5400
C 0.0000 0.0000 401.8800
C 0.0000 0.0000 402.2200
C 0.0000 0.0000 402.5600
C 0.0000 0.0000 402.9000
C 0.0000 0.0000 403.2400
C 0.0000 0.0000 403.5800
C 0.0000 0.0000 403.9200
C 0.0000 0.0000 404.2600
C 0.0000 0.0000 404.6000
C 0.0000 0.0000 404.9400
C 0.0000 0.0000 405.2800
C 0.0000 0.0000 405.6200
C 0.0000 0.0000 405.9600
C 0.0000 0.0000 406.3000
C 0.0000 0.0000 406.6400
C 0.0000 0.0000 406.9800
C 0.0000 0.0000 407.3200
C 0.0000 0.0000 407.6600
C 0.0000 0.0000 408.0000
C 0.0000 0.0000 408.3400
C 0.0000 0.0000 408.6800
C 0.0000 0.0000 409.0200
C 0.0000 0.0000 409.3600
C 0.0000 0.0000 409.7000
C 0.0000 0.0000 410.0400
C 0.0000 0.0000 410.3800
C 0.0000 0.0000 410.7200
C 0.0000 0.0000 411.0600
C 0.0000 0.0000 411.4000
C 0.0000 0.0000 411.7400