100
Atoms. Timestep: 0
C 0.0000 0.0000 0.0000
C 0.0883 -0.1549 0.2056
C 0.0212 -0.1479 0.6112
C -0.0701 0.0242 0.9133
C -0.2589 0.0895 1.1616
C -0.4557 0.3333 1.4478
C -0.5595 0.3482 1.6637
C -0.7384 0.2824 2.0166
C -1.0742 0.4191 2.3361
C -1.2923 0.4198 2.5906
C -1.3478 0.4925 2.7492
C -1.4002 0.5865 3.1571
C -1.6665 0.7689 3.6032
C -1.8255 0.9074 3.8376
C -1.9560 1.0717 3.9530
C -2.1739 1.1185 4.1172
C -2.3914 1.3319 4.5215
C -2.4155 1.3894 4.8907
C -2.3025 1.5266 5.0826
C -2.4965 1.6726 5.5280
C -2.6176 1.7800 5.6558
C -2.5331 1.9491 5.9816
C -2.6318 2.1475 6.2498
C -2.6469 2.3542 6.6014
C -2.8144 2.6438 6.7322
C -2.6482 2.6177 7.0984
C -2.5967 2.7323 7.5610
C -2.6217 2.9014 7.8517
C -2.7593 2.9839 8.0997
C -2.9702 3.1340 8.4103
C -3.3626 3.0719 8.6805
C -3.4848 3.1763 8.9471
C -3.8061 3.2201 9.2068
C -3.9738 3.1926 9.3865
C -4.1064 3.1541 9.7329
C -4.3172 3.0973 10.1905
C -4.5849 3.1253 10.5478
C -4.8028 3.3033 10.8914
C -5.2004 3.4292 11.1316
C -5.7159 3.5754 11.4363
C -6.0503 3.4932 11.5477
C -6.2798 3.5533 11.8608
C -6.4763 3.4667 11.9207
C -6.8657 3.3058 12.1547
C -7.1742 3.2838 12.4022
C -7.6773 3.0784 12.3908
C -7.9812 2.7858 12.4785
C -8.1412 2.7657 12.6310
C -8.5886 2.9160 12.7186
C -8.8204 3.0992 12.8453
C -9.0448 3.1537 12.8713
C -9.3013 3.1020 13.1123
C -9.4439 3.0495 13.1643
C -9.7828 3.1275 13.2706
C -10.1024 3.0437 13.3537
C -10.3822 3.2321 13.6641
C -10.5502 3.3899 13.8218
C -10.8787 3.4042 13.9109
C -11.2198 3.4686 14.0413
C -11.2072 3.5535 14.2533
C -11.3687 3.5572 14.5230
C -11.6265 3.4780 14.8334
C -11.9617 3.5190 15.1454
C -12.1432 3.5147 15.5518
C -12.2678 3.3919 15.8782
C -12.5069 3.3151 16.0207
C -12.8437 3.2760 16.2349
C -12.8109 3.1191 16.4897
C -13.1571 3.2286 16.7318
C -13.4249 3.0571 16.7499
C -13.8979 3.1458 16.8554
C -14.2301 2.9709 17.1570
C -14.7331 2.9147 17.4442
C -15.0417 2.7818 17.7201
C -15.2629 2.5701 17.9629
C -15.6671 2.3754 18.0641
C -15.9478 2.0986 18.3275
C -16.0687 1.8797 18.4793
C -16.1776 1.8078 18.4143
C -16.3446 1.4720 18.5540
C -16.6158 1.2514 18.6436
C -16.9482 1.0838 18.8513
C -17.1873 1.0907 19.2163
C -17.4226 0.9651 19.5858
C -17.7668 0.7409 19.8216
C -17.9839 0.6795 19.9840
C -18.1286 0.5848 20.2628
C -18.4240 0.3781 20.7040
C -18.5172 0.2904 21.0296
C -18.8147 0.4166 21.1394
C -19.0862 0.4481 21.2601
C -19.4135 0.2521 21.5396
C -19.6091 0.3898 21.4828
C -19.9518 0.3037 21.6752
C -20.0787 0.2055 21.8145
C -20.3670 0.1416 22.0554
C -20.6532 0.1655 22.1831
C -20.9674 0.1742 22.3875
C -21.0401 0.1777 22.7232
C -21.3830 0.1832 22.8806
100
Atoms. Timestep: 1
C 0.0000 0.0000 0.0000
C 0.0883 -0.1549 0.2056
C 0.0212 -0.1479 0.6112
C -0.0701 0.0242 0.9133
C -0.2589 0.0895 1.1616
C -0.4557 0.3333 1.4478
C -0.5595 0.3482 1.6637
C -0.7384 0.2824 2.0166
C -1.0742 0.4191 2.3361
C -1.2923 0.4198 2.5906
C -1.3478 0.4925 2.7492
C -1.4002 0.5865 3.1571
C -1.6665 0.7689 3.6032
C -1.8255 0.9074 3.8376
C -1.9560 1.0717 3.9530
C -2.1739 1.1185 4.1172
C -2.3914 1.3319 4.5215
C -2.4155 1.3894 4.8907
C -2.3025 1.5266 5.0826
C -2.4965 1.6726 5.5280
C -2.6176 1.7800 5.6558
C -2.5331 1.9491 5.9816
C -2.6318 2.1475 6.2498
C -2.6469 2.3542 6.6014
C -2.8144 2.6438 6.7322
C -2.6482 2.6177 7.0984
C -2.5967 2.7323 7.5610
C -2.6217 2.9014 7.8517
C -2.7593 2.9839 8.0997
C -2.9702 3.1340 8.4103
C -3.3626 3.0719 8.6805
C -3.4848 3.1763 8.9471
C -3.8061 3.2201 9.2068
C -3.9738 3.1926 9.3865
C -4.1064 3.1541 9.7329
C -4.3172 3.0973 10.1905
C -4.5849 3.1253 10.5478
C -4.8028 3.3033 10.8914
C -5.2004 3.4292 11.1316
C -5.7159 3.5754 11.4363
C -6.0503 3.4932 11.5477
C -6.2798 3.5533 11.8608
C -6.4763 3.4667 11.9207
C -6.8657 3.3058 12.1547
C -7.1742 3.2838 12.4022
C -7.6773 3.0784 12.3908
C -7.9812 2.7858 12.4785
C -8.1412 2.7657 12.6310
C -8.5886 2.9160 12.7186
C -8.8204 3.0992 12.8453
C -9.0448 3.1537 12.8713
C -9.3013 3.1020 13.1123
C -9.4439 3.0495 13.1643
C -9.7828 3.1275 13.2706
C -10.1024 3.0437 13.3537
C -10.3822 3.2321 13.6641
C -10.5502 3.3899 13.8218
C -10.8787 3.4042 13.9109
C -11.2198 3.4686 14.0413
C -11.2072 3.5535 14.2533
C -11.3687 3.5572 14.5230
C -11.6265 3.4780 14.8334
C -11.9617 3.5190 15.1454
C -12.1432 3.5147 15.5518
C -12.2678 3.3919 15.8782
C -12.5069 3.3151 16.0207
C -12.8437 3.2760 16.2349
C -12.8109 3.1191 16.4897
C -13.1571 3.2286 16.7318
C -13.4249 3.0571 16.7499
C -13.8979 3.1458 16.8554
C -14.2301 2.9709 17.1570
C -14.7331 2.9147 17.4442
C -15.0417 2.7818 17.7201
C -15.2629 2.5701 17.9629
C -15.6671 2.3754 18.0641
C -15.9478 2.0986 18.3275
C -16.0687 1.8797 18.4793
C -16.1776 1.8078 18.4143
C -16.3446 1.4720 18.5540
C -16.6158 1.2514 18.6436
C -16.9482 1.0838 18.8513
C -17.1873 1.0907 19.2163
C -17.4226 0.9651 19.5858
C -17.7668 0.7409 19.8216
C -17.9839 0.6795 19.9840
C -18.1286 0.5848 20.2628
C -18.4240 0.3781 20.7040
C -18.5172 0.2904 21.0296
C -18.8147 0.4166 21.1394
C -19.0862 0.4481 21.2601
C -19.4135 0.2521 21.5396
C -19.6091 0.3898 21.4828
C -19.9518 0.3037 21.6752
C -20.0787 0.2055 21.8145
C -20.3670 0.1416 22.0554
C -20.6532 0.1655 22.1831
C -20.9674 0.1742 22.3875
C -21.0401 0.1777 22.7232
C -21.3830 0.1832 22.8806
100
Atoms. Timestep: 2
C 0.0000 0.0000 0.0000
C 0.0883 -0.1549 0.2056
C -0.0098 -0.1673 0.6047
C -0.0872 -0.0118 0.9194
C -0.2800 0.0749 1.1580
C -0.4267 0.3240 1.4686
C -0.5530 0.3437 1.6719
C -0.7894 0.2935 1.9919
C -1.1165 0.4592 2.3067
C -1.3413 0.4745 2.5549
C -1.3957 0.5495 2.7127
C -1.4541 0.6513 3.1180
C -1.7311 0.8554 3.5479
C -1.9003 0.9922 3.7760
C -2.0556 1.1422 3.8792
C -2.2694 1.1761 4.0518
C -2.4960 1.3951 4.4481
C -2.5099 1.5010 4.8069
C -2.4225 1.6912 4.9640
C -2.6146 1.8537 5.4044
C -2.7440 1.9559 5.5283
C -2.6665 2.1520 5.8404
C -2.7776 2.3591 6.0969
C -2.7907 2.5725 6.4445
C -2.9850 2.8468 6.5711
C -2.7888 2.8745 6.9221
C -2.7422 3.0901 7.3477
C -2.7983 3.3041 7.6022
C -2.9494 3.4033 7.8358
C -3.2002 3.5795 8.0995
C -3.5768 3.5049 8.3885
C -3.7195 3.6384 8.6308
C -4.0424 3.6822 8.8884
C -4.2145 3.6590 9.0646
C -4.3530 3.6253 9.4092
C -4.5638 3.5381 9.8620
C -4.8088 3.5384 10.2362
C -5.0366 3.7215 10.5707
C -5.4223 3.7731 10.8537
C -5.9287 3.8252 11.2014
C -6.2333 3.6839 11.3364
C -6.4545 3.7084 11.6602
C -6.6280 3.5888 11.7327
C -6.9811 3.3719 11.9786
C -7.2899 3.3264 12.2226
C -7.7639 3.0609 12.2394
C -7.9921 2.7424 12.4185
C -8.1469 2.7197 12.5761
C -8.6235 2.7413 12.6289
C -8.9063 2.8832 12.6857
C -9.1384 2.8865 12.6981
C -9.3899 2.8402 12.9454
C -9.5172 2.7690 13.0126
C -9.8711 2.7893 13.0936
C -10.1511 2.6408 13.2186
C -10.5123 2.8216 13.4352
C -10.7408 2.9587 13.5193
C -11.0638 2.9219 13.6209
C -11.4137 2.9427 13.7417
C -11.4302 3.0952 13.9116
C -11.6176 3.1475 14.1585
C -11.8929 3.1288 14.4634
C -12.2588 3.2156 14.7279
C -12.4910 3.3268 15.0911
C -12.6481 3.3542 15.4253
C -12.8894 3.2939 15.5720
C -13.2187 3.2633 15.7988
C -13.1622 3.2495 16.0943
C -13.5177 3.3626 16.3206
C -13.7375 3.1513 16.4125
C -14.2176 3.1675 16.5215
C -14.4997 3.0288 16.8865
C -14.9698 2.9588 17.2223
C -15.2424 2.8421 17.5402
C -15.4156 2.6402 17.8264
C -15.8017 2.4292 17.9607
C -16.0491 2.1481 18.2514
C -16.1388 1.9421 18.4386
C -16.2397 1.8603 18.3725
C -16.3868 1.5194 18.5220
C -16.6173 1.2643 18.6318
C -16.9432 1.0792 18.8349
C -17.2389 1.1151 19.1539
C -17.5013 1.0502 19.5208
C -17.8030 0.8199 19.8041
C -18.0096 0.7536 19.9778
C -18.1513 0.7265 20.2725
C -18.4148 0.5927 20.7596
C -18.5136 0.5992 21.0952
C -18.8527 0.6066 21.1331
C -19.1316 0.5685 21.2336
C -19.3994 0.3839 21.5769
C -19.6216 0.3886 21.4719
C -19.9507 0.2905 21.6817
C -20.0735 0.2053 21.8327
C -20.3642 0.1442 22.0714
C -20.6538 0.1603 22.1925
C -20.9744 0.1863 22.3852
C -21.0414 0.1655 22.7214
C -21.3830 0.1832 22.8806
100
Atoms. Timestep: 3
C 0.0000 0.0000 0.0000
C 0.0883 -0.1549 0.2056
C -0.0079 -0.1664 0.6052
C -0.0849 -0.0138 0.9214
C -0.2754 0.0699 1.1629
C -0.4245 0.3165 1.4743
C -0.5457 0.3327 1.6810
C -0.7747 0.2764 2.0053
C -1.0932 0.4435 2.3281
C -1.3134 0.4531 2.5805
C -1.3649 0.5238 2.7414
C -1.4221 0.6105 3.1503
C -1.6937 0.8087 3.5863
C -1.8580 0.9446 3.8185
C -2.0148 1.0912 3.9244
C -2.2259 1.1168 4.1018
C -2.4512 1.3284 4.5027
C -2.4521 1.4364 4.8612
C -2.3992 1.6593 4.9877
C -2.5864 1.8170 5.4319
C -2.7234 1.8990 5.5626
C -2.6520 2.1028 5.8711
C -2.7866 2.3077 6.1179
C -2.8437 2.5724 6.4233
C -3.1159 2.7889 6.5133
C -2.9404 2.9702 6.8274
C -2.9717 3.3014 7.1727
C -3.1344 3.5611 7.3133
C -3.3277 3.6801 7.5022
C -3.6391 3.8474 7.6985
C -3.9917 3.7574 8.0123
C -4.1658 3.9045 8.2244
C -4.4861 3.9209 8.4883
C -4.6447 3.8946 8.6763
C -4.7705 3.8941 9.0273
C -4.9097 3.8558 9.5134
C -5.1075 3.8684 9.9144
C -5.3220 4.0459 10.2605
C -5.7137 4.1001 10.5347
C -6.2159 4.1540 10.8880
C -6.4928 3.9957 11.0591
C -6.7318 4.0697 11.3620
C -6.8707 3.9415 11.4803
C -7.1424 3.7244 11.8138
C -7.4291 3.6800 12.0836
C -7.8172 3.3220 12.2125
C -7.9630 3.0159 12.4783
C -8.1044 2.9998 12.6487
C -8.5758 2.9498 12.7243
C -8.8809 3.0405 12.7690
C -9.1078 2.9955 12.7912
C -9.3476 2.9798 13.0535
C -9.4544 2.9080 13.1496
C -9.8012 2.8484 13.2411
C -10.0206 2.6843 13.4437
C -10.4321 2.8329 13.5803
C -10.6973 2.9173 13.6049
C -11.0011 2.8257 13.7288
C -11.3483 2.7681 13.8456
C -11.4310 2.9644 13.9291
C -11.6523 3.0544 14.1335
C -11.9285 3.0866 14.4365
C -12.3225 3.1712 14.6578
C -12.5977 3.3183 14.9752
C -12.7729 3.3835 15.2949
C -13.0116 3.3069 15.4382
C -13.3537 3.2598 15.6420
C -13.3286 3.3118 15.9375
C -13.7183 3.4073 16.1091
C -13.9205 3.1814 16.2065
C -14.4025 3.0923 16.2554
C -14.7070 2.9703 16.6081
C -15.2041 2.8772 16.8960
C -15.4813 2.7803 17.2165
C -15.6134 2.6415 17.5571
C -15.9458 2.4023 17.7666
C -16.1626 2.1587 18.1107
C -16.2323 1.9826 18.3336
C -16.3037 1.8677 18.2792
C -16.4037 1.5494 18.5002
C -16.5945 1.2799 18.6458
C -16.9065 1.0737 18.8504
C -17.2524 1.1109 19.1139
C -17.5513 1.0673 19.4551
C -17.8387 0.8468 19.7603
C -18.0462 0.7761 19.9311
C -18.1985 0.7688 20.2216
C -18.4554 0.6562 20.7176
C -18.5535 0.6589 21.0534
C -18.8878 0.6997 21.1084
C -19.1613 0.6687 21.2249
C -19.4098 0.4684 21.5738
C -19.6327 0.4438 21.4732
C -19.9495 0.3127 21.6839
C -20.0669 0.2273 21.8391
C -20.3591 0.1499 22.0711
C -20.6465 0.1553 22.1983
C -20.9681 0.1702 22.3904
C -21.0395 0.1606 22.7262
C -21.3830 0.1832 22.8806
100
Atoms. Timestep: 4
C 0.0000 0.0000 0.0000
C 0.0883 -0.1549 0.2056
C -0.0044 -0.1640 0.6061
C -0.0815 -0.0087 0.9210
C -0.2709 0.0793 1.1617
C -0.4139 0.3279 1.4745
C -0.5354 0.3468 1.6807
C -0.7834 0.2955 1.9917
C -1.0886 0.4762 2.3199
C -1.3281 0.5100 2.5519
C -1.3781 0.5656 2.7191
C -1.4541 0.6183 3.1307
C -1.7199 0.8209 3.5683
C -1.8718 0.9561 3.8091
C -1.9941 1.1192 3.9347
C -2.2083 1.1641 4.1044
C -2.4068 1.3440 4.5340
C -2.4307 1.3757 4.9062
C -2.3299 1.5377 5.0853
C -2.5243 1.6764 5.5327
C -2.6493 1.7755 5.6634
C -2.5574 1.8875 6.0112
C -2.6520 2.0602 6.2979
C -2.6524 2.2114 6.6770
C -2.8226 2.4847 6.8363
C -2.6246 2.4966 7.1871
C -2.5818 2.7012 7.6185
C -2.6494 2.9143 7.8709
C -2.8113 3.0106 8.0984
C -3.0671 3.1904 8.3548
C -3.4584 3.1062 8.6206
C -3.5928 3.2056 8.8832
C -3.9192 3.2285 9.1391
C -4.1002 3.2015 9.3056
C -4.2702 3.1613 9.6350
C -4.5035 3.0435 10.0695
C -4.7666 3.0143 10.4300
C -4.9633 3.1382 10.8085
C -5.3494 3.2804 11.0581
C -5.8566 3.4299 11.3750
C -6.1925 3.3322 11.4679
C -6.4345 3.3656 11.7755
C -6.6263 3.2641 11.8268
C -7.0143 3.0593 12.0259
C -7.3350 3.0224 12.2555
C -7.8567 2.8779 12.2062
C -8.1355 2.5681 12.3151
C -8.2924 2.5358 12.4689
C -8.7512 2.6481 12.5540
C -8.9931 2.8284 12.6652
C -9.2188 2.8741 12.6958
C -9.4563 2.8433 12.9589
C -9.5871 2.7868 13.0331
C -9.9271 2.8445 13.1484
C -10.2105 2.7130 13.2844
C -10.5337 2.9270 13.5289
C -10.7605 3.0665 13.6134
C -11.0766 3.0114 13.7278
C -11.4277 3.0100 13.8469
C -11.4562 3.1821 13.9950
C -11.6375 3.2534 14.2418
C -11.8941 3.2588 14.5630
C -12.2500 3.3553 14.8376
C -12.4836 3.4688 15.1992
C -12.6393 3.4830 15.5349
C -12.8959 3.4254 15.6540
C -13.2456 3.4001 15.8486
C -13.2174 3.3300 16.1400
C -13.5954 3.4374 16.3298
C -13.8401 3.2387 16.3745
C -14.3214 3.2645 16.4766
C -14.6222 3.1034 16.8166
C -15.1097 3.0288 17.1255
C -15.3797 2.8945 17.4385
C -15.5094 2.7058 17.7552
C -15.8498 2.4611 17.9445
C -16.0599 2.1980 18.2783
C -16.1239 2.0178 18.4996
C -16.1784 1.8922 18.4495
C -16.2434 1.5851 18.6979
C -16.3867 1.3094 18.8814
C -16.6737 1.0876 19.1053
C -17.0476 1.1101 19.3293
C -17.3880 1.0621 19.6284
C -17.6729 0.8375 19.9330
C -17.8846 0.7568 20.0939
C -18.0780 0.7824 20.3577
C -18.3796 0.7099 20.8357
C -18.5297 0.7622 21.1474
C -18.8706 0.7482 21.1555
C -19.1491 0.6921 21.2483
C -19.4003 0.4965 21.5980
C -19.6207 0.4716 21.4919
C -19.9356 0.3287 21.6977
C -20.0515 0.2382 21.8510
C -20.3436 0.1459 22.0777
C -20.6245 0.1389 22.2186
C -20.9462 0.1487 22.4107
C -21.0321 0.1669 22.7428
C -21.3830 0.1832 22.8806
100
Atoms. Timestep: 5
C 0.0000 0.0000 0.0000
C 0.0883 -0.1549 0.2056
C 0.0031 -0.1608 0.6078
C -0.0791 0.0015 0.9178
C -0.2704 0.0783 1.1609
C -0.4525 0.3295 1.4504
C -0.5643 0.3481 1.6621
C -0.7705 0.2806 1.9993
C -1.0779 0.4278 2.3420
C -1.2976 0.4299 2.5951
C -1.3487 0.4939 2.7588
C -1.4379 0.5683 3.1644
C -1.7056 0.7700 3.6012
C -1.8580 0.9062 3.8412
C -1.9747 1.0771 3.9617
C -2.1946 1.1389 4.1182
C -2.4019 1.3434 4.5323
C -2.4568 1.3694 4.9017
C -2.3447 1.4823 5.1095
C -2.5557 1.6127 5.5520
C -2.6690 1.7256 5.6822
C -2.5919 1.7927 6.0448
C -2.6766 1.9631 6.3360
C -2.6866 2.1319 6.7075
C -2.8281 2.4344 6.8396
C -2.6587 2.4449 7.2051
C -2.6151 2.6077 7.6539
C -2.6644 2.8201 7.9111
C -2.8225 2.9180 8.1406
C -3.0596 3.1115 8.4048
C -3.4680 3.0488 8.6500
C -3.5955 3.1292 8.9224
C -3.9155 3.1231 9.1872
C -4.1052 3.1026 9.3446
C -4.2858 3.0736 9.6696
C -4.5341 2.9734 10.1001
C -4.8064 2.9591 10.4547
C -5.0040 3.1117 10.8220
C -5.3974 3.2654 11.0527
C -5.9114 3.4323 11.3492
C -6.2534 3.3411 11.4251
C -6.5015 3.3464 11.7296
C -6.6969 3.2488 11.7747
C -7.0938 3.0535 11.9657
C -7.4158 3.0098 12.1923
C -7.9260 2.8307 12.1368
C -8.1999 2.5130 12.2352
C -8.3634 2.4807 12.3819
C -8.8112 2.6294 12.4705
C -9.0374 2.8155 12.6029
C -9.2564 2.8818 12.6434
C -9.5022 2.8213 12.8933
C -9.6375 2.7677 12.9614
C -9.9656 2.8417 13.0996
C -10.2662 2.7371 13.2212
C -10.5511 2.9574 13.5048
C -10.7442 3.1185 13.6264
C -11.0717 3.1078 13.7196
C -11.4243 3.1263 13.8328
C -11.4379 3.2799 14.0018
C -11.6191 3.3298 14.2538
C -11.8868 3.2973 14.5642
C -12.2297 3.3852 14.8577
C -12.4491 3.4556 15.2385
C -12.6158 3.4444 15.5690
C -12.8800 3.3972 15.6753
C -13.2324 3.3697 15.8648
C -13.2191 3.3231 16.1619
C -13.5962 3.4268 16.3556
C -13.8640 3.2551 16.3681
C -14.3430 3.3060 16.4714
C -14.6606 3.1331 16.7896
C -15.1626 3.0459 17.0707
C -15.4410 2.9079 17.3747
C -15.5606 2.7418 17.7076
C -15.8902 2.5056 17.9248
C -16.0977 2.2417 18.2595
C -16.1632 2.0527 18.4729
C -16.2205 1.9281 18.4234
C -16.2943 1.6187 18.6664
C -16.4448 1.3403 18.8398
C -16.7410 1.1179 19.0508
C -17.1278 1.1371 19.2519
C -17.4420 1.0839 19.5778
C -17.7405 0.8499 19.8614
C -17.9481 0.7710 20.0285
C -18.1027 0.7583 20.3176
C -18.3789 0.6470 20.8034
C -18.5130 0.6850 21.1243
C -18.8538 0.6756 21.1411
C -19.1325 0.6346 21.2408
C -19.3837 0.4504 21.5967
C -19.6026 0.4063 21.4939
C -19.9083 0.2665 21.7152
C -20.0234 0.1887 21.8759
C -20.3152 0.1102 22.1081
C -20.5990 0.1012 22.2428
C -20.9312 0.1219 22.4153
C -21.0336 0.1788 22.7382
C -21.3830 0.1832 22.8806
100
Atoms. Timestep: 6
C 0.0000 0.0000 0.0000
C 0.0883 -0.1549 0.2056
C 0.0194 -0.1442 0.6108
C -0.0702 0.0306 0.9119
C -0.2619 0.1182 1.1510
C -0.4116 0.3723 1.4561
C -0.5300 0.3924 1.6641
C -0.7737 0.3407 1.9783
C -1.0682 0.5160 2.3190
C -1.2891 0.5259 2.5709
C -1.3338 0.5809 2.7397
C -1.4008 0.6577 3.1491
C -1.6519 0.8534 3.5983
C -1.8012 0.9792 3.8458
C -1.9243 1.1413 3.9719
C -2.1461 1.2069 4.1241
C -2.3594 1.4100 4.5359
C -2.4095 1.4409 4.9056
C -2.3056 1.5817 5.1001
C -2.5218 1.7144 5.5394
C -2.6391 1.8255 5.6675
C -2.5577 1.9048 6.0266
C -2.6509 2.0818 6.3112
C -2.6795 2.2752 6.6695
C -2.8466 2.5739 6.7783
C -2.6725 2.5619 7.1416
C -2.6104 2.7082 7.5939
C -2.6782 2.9294 7.8392
C -2.8322 3.0046 8.0797
C -3.0805 3.1587 8.3592
C -3.4938 3.1045 8.5982
C -3.6119 3.1571 8.8814
C -3.9321 3.1467 9.1460
C -4.1270 3.1274 9.2969
C -4.3274 3.0589 9.6039
C -4.6108 2.9171 9.9997
C -4.8890 2.8681 10.3465
C -5.0729 2.9640 10.7392
C -5.4475 3.1181 10.9991
C -5.9421 3.2852 11.3269
C -6.2952 3.2300 11.3840
C -6.5383 3.1812 11.6887
C -6.7442 3.0999 11.7153
C -7.1771 2.9493 11.8642
C -7.5051 2.9146 12.0836
C -8.0392 2.8591 11.9993
C -8.3612 2.5761 12.0423
C -8.5251 2.5366 12.1867
C -8.9648 2.6866 12.3073
C -9.1882 2.8691 12.4492
C -9.4050 2.9348 12.5009
C -9.6351 2.8767 12.7659
C -9.7705 2.8320 12.8399
C -10.0805 2.9253 13.0054
C -10.3825 2.8451 13.1412
C -10.6002 3.0483 13.4896
C -10.7494 3.2133 13.6586
C -11.0676 3.2471 13.7754
C -11.4026 3.3030 13.9241
C -11.3856 3.4124 14.1243
C -11.5379 3.4309 14.3987
C -11.7715 3.3740 14.7323
C -12.0719 3.4601 15.0696
C -12.2363 3.5091 15.4803
C -12.3643 3.4478 15.8224
C -12.6201 3.4281 15.9548
C -12.9423 3.4247 16.1936
C -12.9288 3.2954 16.4652
C -13.2561 3.4302 16.7204
C -13.5366 3.2807 16.7396
C -13.9970 3.3788 16.8848
C -14.3140 3.2059 17.2036
C -14.8090 3.1648 17.5069
C -15.1098 3.0127 17.7814
C -15.2706 2.7812 18.0520
C -15.6535 2.5821 18.2111
C -15.9207 2.2970 18.4796
C -16.0367 2.0883 18.6485
C -16.1163 1.9977 18.5665
C -16.2752 1.6625 18.7168
C -16.4879 1.3925 18.8268
C -16.8290 1.2034 18.9988
C -17.1936 1.2602 19.2318
C -17.5012 1.2135 19.5648
C -17.8067 0.9807 19.8420
C -18.0122 0.9009 20.0112
C -18.1520 0.8729 20.3067
C -18.4089 0.7318 20.7953
C -18.5337 0.7645 21.1205
C -18.8719 0.7232 21.1391
C -19.1453 0.6560 21.2395
C -19.3883 0.4718 21.6010
C -19.6000 0.4053 21.4953
C -19.9133 0.2679 21.7072
C -20.0364 0.1910 21.8623
C -20.3320 0.1184 22.0916
C -20.6162 0.1199 22.2259
C -20.9458 0.1500 22.4019
C -21.0365 0.1867 22.7312
C -21.3830 0.1832 22.8806
100
Atoms. Timestep: 7
C 0.0000 0.0000 0.0000
C 0.0883 -0.1549 0.2056
C 0.0088 -0.1674 0.6088
C -0.0798 -0.0003 0.9145
C -0.2740 0.0830 1.1531
C -0.4302 0.3343 1.4573
C -0.5520 0.3556 1.6631
C -0.7928 0.3006 1.9790
C -1.1064 0.4619 2.3094
C -1.3222 0.4588 2.5658
C -1.3719 0.5155 2.7327
C -1.4333 0.5866 3.1439
C -1.6865 0.7560 3.6026
C -1.8394 0.8688 3.8541
C -1.9763 1.0176 3.9823
C -2.1960 1.0496 4.1477
C -2.4169 1.2329 4.5648
C -2.4467 1.2770 4.9353
C -2.3599 1.4475 5.1138
C -2.5744 1.5747 5.5555
C -2.7090 1.6693 5.6799
C -2.6303 1.8056 6.0221
C -2.7484 1.9871 6.2945
C -2.8119 2.2197 6.6238
C -3.0355 2.4861 6.7136
C -2.8454 2.5485 7.0634
C -2.7957 2.7425 7.4990
C -2.8807 2.9578 7.7442
C -3.0326 3.0219 7.9892
C -3.2812 3.1441 8.2837
C -3.6661 3.0229 8.5446
C -3.7819 3.0617 8.8310
C -4.0989 3.0301 9.0976
C -4.2803 2.9854 9.2597
C -4.4668 2.9115 9.5740
C -4.7296 2.7598 9.9802
C -5.0085 2.7436 10.3296
C -5.2230 2.9062 10.6829
C -5.6275 3.0398 10.9068
C -6.1643 3.1573 11.1861
C -6.4930 3.0298 11.2679
C -6.7395 3.0228 11.5738
C -6.9255 2.9123 11.6274
C -7.3267 2.7372 11.8288
C -7.6492 2.7156 12.0579
C -8.1412 2.4861 12.0317
C -8.3921 2.1739 12.1904
C -8.5587 2.1720 12.3371
C -9.0147 2.3184 12.3693
C -9.2635 2.5176 12.4114
C -9.4929 2.5549 12.4095
C -9.7400 2.5819 12.6640
C -9.8694 2.5455 12.7520
C -10.2167 2.6075 12.8398
C -10.4875 2.5333 13.0328
C -10.7638 2.7998 13.2834
C -10.9746 2.9615 13.3694
C -11.2863 2.9393 13.5052
C -11.6242 2.9420 13.6577
C -11.6380 3.1148 13.8071
C -11.7895 3.2030 14.0681
C -12.0133 3.2114 14.4129
C -12.3437 3.3276 14.7108
C -12.5812 3.4756 15.0570
C -12.7507 3.5482 15.3781
C -12.9961 3.4789 15.5135
C -13.3377 3.4464 15.7212
C -13.3193 3.4299 16.0213
C -13.7006 3.5305 16.2083
C -13.9454 3.3339 16.2617
C -14.4214 3.3577 16.3861
C -14.7102 3.1987 16.7372
C -15.2084 3.1058 17.0234
C -15.4882 2.9553 17.3201
C -15.6032 2.7756 17.6475
C -15.9486 2.5483 17.8489
C -16.1681 2.2864 18.1775
C -16.2425 2.1059 18.3954
C -16.3099 1.9911 18.3359
C -16.4280 1.6623 18.5311
C -16.6157 1.3862 18.6682
C -16.9530 1.1985 18.8490
C -17.3099 1.2494 19.0950
C -17.6157 1.1955 19.4286
C -17.9009 0.9573 19.7223
C -18.1014 0.8778 19.8975
C -18.2364 0.8555 20.1957
C -18.4778 0.7061 20.6898
C -18.5838 0.7451 21.0209
C -18.9229 0.7395 21.0590
C -19.1944 0.6876 21.1725
C -19.4346 0.5048 21.5366
C -19.6552 0.4489 21.4437
C -19.9465 0.2975 21.6765
C -20.0555 0.2165 21.8399
C -20.3330 0.1357 22.0883
C -20.6167 0.1374 22.2234
C -20.9502 0.1591 22.3934
C -21.0405 0.1955 22.7228
C -21.3830 0.1832 22.8806
100
Atoms. Timestep: 8
C 0.0000 0.0000 0.0000
C 0.0883 -0.1549 0.2056
C 0.0023 -0.1783 0.6070
C -0.0776 -0.0261 0.9227
C -0.2703 0.0593 1.1617
C -0.4275 0.3114 1.4647
C -0.5484 0.3326 1.6711
C -0.7748 0.2713 1.9963
C -1.0931 0.4199 2.3282
C -1.2990 0.4101 2.5925
C -1.3500 0.4724 2.7570
C -1.4046 0.5588 3.1663
C -1.6655 0.7353 3.6179
C -1.8244 0.8494 3.8651
C -1.9717 1.0017 3.9767
C -2.1916 1.0227 4.1436
C -2.4235 1.2117 4.5520
C -2.4488 1.3067 4.9132
C -2.3907 1.5154 5.0600
C -2.5955 1.6468 5.5051
C -2.7324 1.7236 5.6388
C -2.6473 1.8917 5.9650
C -2.7637 2.0630 6.2445
C -2.8206 2.2890 6.5796
C -3.0518 2.5537 6.6538
C -2.8693 2.6294 7.0051
C -2.8155 2.8502 7.4272
C -2.9018 3.0679 7.6698
C -3.0644 3.1591 7.8988
C -3.3311 3.3096 8.1629
C -3.7170 3.2073 8.4302
C -3.8589 3.3108 8.6873
C -4.1688 3.2802 8.9622
C -4.3403 3.2370 9.1351
C -4.5211 3.2074 9.4599
C -4.7704 3.1143 9.8915
C -5.0534 3.1251 10.2377
C -5.2910 3.3180 10.5596
C -5.7037 3.4242 10.7831
C -6.2431 3.5142 11.0677
C -6.5447 3.3515 11.1841
C -6.7777 3.3482 11.5005
C -6.9545 3.2302 11.5673
C -7.3452 3.0507 11.7849
C -7.6590 3.0235 12.0252
C -8.1475 2.7854 12.0348
C -8.3744 2.4467 12.1742
C -8.5343 2.4335 12.3277
C -8.9837 2.5918 12.3856
C -9.2028 2.8065 12.4819
C -9.4245 2.8742 12.4985
C -9.6579 2.8832 12.7668
C -9.7898 2.8517 12.8530
C -10.1180 2.9474 12.9769
C -10.3842 2.8629 13.1720
C -10.6377 3.1145 13.4593
C -10.8209 3.2821 13.5872
C -11.1321 3.2731 13.7254
C -11.4639 3.2953 13.8895
C -11.4725 3.4403 14.0663
C -11.6360 3.4992 14.3282
C -11.8855 3.4897 14.6550
C -12.2301 3.5937 14.9411
C -12.4807 3.7125 15.2892
C -12.6416 3.7320 15.6222
C -12.9049 3.7044 15.7374
C -13.2543 3.7020 15.9342
C -13.2470 3.6304 16.2266
C -13.5978 3.7446 16.4596
C -13.8288 3.5349 16.5236
C -14.3054 3.5641 16.6448
C -14.6111 3.3942 16.9760
C -15.1208 3.2949 17.2387
C -15.4217 3.1204 17.4994
C -15.5639 2.9105 17.7968
C -15.9136 2.6657 17.9681
C -16.1432 2.3677 18.2567
C -16.2216 2.1616 18.4488
C -16.2804 2.0410 18.3917
C -16.3772 1.7088 18.5928
C -16.5593 1.4322 18.7364
C -16.8858 1.2229 18.9132
C -17.2693 1.2504 19.1197
C -17.6097 1.2086 19.4198
C -17.9133 0.9850 19.7065
C -18.1263 0.9099 19.8685
C -18.2800 0.9003 20.1582
C -18.5363 0.7698 20.6501
C -18.6251 0.7976 20.9874
C -18.9629 0.8046 21.0353
C -19.2295 0.7421 21.1550
C -19.4631 0.5354 21.5105
C -19.6884 0.4982 21.4196
C -19.9821 0.3495 21.6510
C -20.0853 0.2477 21.8064
C -20.3600 0.1556 22.0539
C -20.6410 0.1679 22.1942
C -20.9632 0.2058 22.3820
C -21.0438 0.1908 22.7156
C -21.3830 0.1832 22.8806
100
Atoms. Timestep: 9
C 0.0000 0.0000 0.0000
C 0.0883 -0.1549 0.2056
C 0.0010 -0.1815 0.6065
C -0.0784 -0.0316 0.9235
C -0.2705 0.0565 1.1621
C -0.4132 0.3034 1.4763
C -0.5382 0.3235 1.6803
C -0.7802 0.2644 1.9945
C -1.0855 0.4455 2.3224
C -1.3137 0.4561 2.5677
C -1.3649 0.5080 2.7356
C -1.4394 0.5526 3.1485
C -1.6942 0.7341 3.6016
C -1.8409 0.8465 3.8570
C -1.9417 1.0170 3.9914
C -2.1633 1.0872 4.1419
C -2.3788 1.2693 4.5623
C -2.4157 1.2972 4.9338
C -2.3279 1.4650 5.1143
C -2.5314 1.5627 5.5686
C -2.6573 1.6322 5.7164
C -2.5557 1.6789 6.0762
C -2.6527 1.8016 6.3869
C -2.6962 1.9838 6.7495
C -2.9456 2.2114 6.8719
C -2.7404 2.2939 7.2088
C -2.6882 2.5022 7.6374
C -2.7717 2.7120 7.8878
C -2.9291 2.7912 8.1248
C -3.2210 2.9496 8.3555
C -3.6116 2.8412 8.6134
C -3.7617 2.9375 8.8685
C -4.0850 2.9101 9.1280
C -4.2627 2.8670 9.2945
C -4.4570 2.8455 9.6121
C -4.7059 2.7722 10.0477
C -4.9989 2.7786 10.3856
C -5.2379 2.9971 10.6896
C -5.6631 3.1413 10.8628
C -6.2187 3.2884 11.0857
C -6.5315 3.1424 11.1945
C -6.7672 3.1603 11.5083
C -6.9290 3.0376 11.6002
C -7.3185 2.8827 11.8379
C -7.6357 2.8761 12.0751
C -8.0736 2.5694 12.1734
C -8.2457 2.2687 12.4293
C -8.4101 2.2807 12.5780
C -8.8810 2.3720 12.5961
C -9.1322 2.5667 12.6446
C -9.3618 2.5985 12.6603
C -9.5802 2.6180 12.9405
C -9.7067 2.5882 13.0349
C -10.0272 2.6801 13.1800
C -10.2768 2.5990 13.3973
C -10.5314 2.8562 13.6786
C -10.7196 3.0143 13.8113
C -10.9958 2.9702 14.0057
C -11.2980 2.9562 14.2201
C -11.3089 3.1321 14.3660
C -11.4435 3.2149 14.6377
C -11.6471 3.2308 14.9946
C -11.9586 3.3433 15.3136
C -12.1836 3.4855 15.6703
C -12.3277 3.5433 16.0065
C -12.5870 3.5068 16.1282
C -12.9358 3.4961 16.3257
C -12.9336 3.5057 16.6266
C -13.3324 3.5816 16.7865
C -13.5689 3.3727 16.8299
C -14.0614 3.3772 16.8209
C -14.4361 3.2366 17.0890
C -14.9791 3.1235 17.2648
C -15.3021 2.9627 17.5073
C -15.4902 2.7818 17.7982
C -15.8720 2.5509 17.9099
C -16.1204 2.2837 18.2127
C -16.1995 2.1010 18.4269
C -16.2586 1.9776 18.3766
C -16.3490 1.6539 18.5939
C -16.5246 1.3850 18.7585
C -16.8529 1.1853 18.9431
C -17.2309 1.2241 19.1576
C -17.5814 1.1936 19.4474
C -17.8876 0.9807 19.7393
C -18.1071 0.9118 19.8952
C -18.2779 0.9268 20.1749
C -18.5562 0.8342 20.6635
C -18.6753 0.9138 20.9827
C -19.0117 0.8635 21.0116
C -19.2777 0.7835 21.1218
C -19.5051 0.5836 21.4850
C -19.7258 0.5253 21.3935
C -20.0030 0.3746 21.6432
C -20.0957 0.2908 21.8150
C -20.3597 0.1911 22.0711
C -20.6463 0.1890 22.2001
C -20.9805 0.2147 22.3681
C -21.0513 0.2180 22.7042
C -21.3830 0.1832 22.8806
100
Atoms. Timestep: 10
C 0.0000 0.0000 0.0000
C 0.0883 -0.1549 0.2056
C 0.0010 -0.1815 0.6065
C -0.0799 -0.0288 0.9217
C -0.2710 0.0585 1.1615
C -0.4063 0.3006 1.4826
C -0.5334 0.3184 1.6856
C -0.7732 0.2572 2.0011
C -1.0843 0.4304 2.3278
C -1.3186 0.4524 2.5665
C -1.3719 0.5069 2.7330
C -1.4631 0.5467 3.1429
C -1.7188 0.7470 3.5875
C -1.8655 0.8694 3.8383
C -1.9657 1.0465 3.9644
C -2.1892 1.1195 4.1107
C -2.4062 1.3228 4.5204
C -2.4672 1.3521 4.8886
C -2.3619 1.4743 5.0946
C -2.5876 1.5858 5.5350
C -2.7023 1.6919 5.6696
C -2.6489 1.6794 6.0423
C -2.7413 1.8153 6.3489
C -2.7680 1.9782 6.7221
C -2.9312 2.2610 6.8719
C -2.7554 2.2167 7.2318
C -2.6897 2.3455 7.6889
C -2.7348 2.5125 7.9784
C -2.8850 2.5800 8.2235
C -3.1218 2.7603 8.4972
C -3.5580 2.7377 8.6974
C -3.6981 2.8276 8.9605
C -4.0390 2.8514 9.1966
C -4.2374 2.8325 9.3432
C -4.4425 2.8050 9.6534
C -4.7180 2.6838 10.0614
C -5.0154 2.6803 10.3955
C -5.2250 2.9101 10.7125
C -5.6254 3.1122 10.8871
C -6.1605 3.3075 11.1226
C -6.5008 3.2091 11.1970
C -6.7450 3.2218 11.5045
C -6.9265 3.1124 11.5737
C -7.3393 2.9788 11.7833
C -7.6484 2.9631 12.0306
C -8.1552 2.7673 12.0455
C -8.4011 2.4332 12.1617
C -8.5509 2.4075 12.3235
C -8.9767 2.5960 12.4399
C -9.1711 2.7989 12.5961
C -9.3926 2.8521 12.6423
C -9.5834 2.8166 12.9404
C -9.7009 2.7678 13.0385
C -10.0093 2.8259 13.2222
C -10.2415 2.6996 13.4371
C -10.4138 2.8719 13.8253
C -10.5445 3.0212 14.0219
C -10.8153 2.9918 14.2264
C -11.1056 2.9853 14.4570
C -11.0641 3.1000 14.6506
C -11.1660 3.1149 14.9477
C -11.3567 3.0579 15.3074
C -11.6162 3.1211 15.6817
C -11.7814 3.1658 16.0926
C -11.9196 3.1761 16.4361
C -12.1721 3.1415 16.5718
C -12.5034 3.1410 16.7977
C -12.4841 3.0593 17.0869
C -12.8360 3.1767 17.3167
C -13.1265 3.0461 17.3162
C -13.5792 3.2264 17.3882
C -13.9762 3.1183 17.6386
C -14.5283 3.1061 17.8220
C -14.8875 2.9840 18.0342
C -15.1344 2.7807 18.2589
C -15.5610 2.6276 18.3371
C -15.8739 2.3542 18.5655
C -16.0031 2.1312 18.7037
C -16.0993 2.0660 18.6156
C -16.3034 1.7290 18.6863
C -16.5532 1.4771 18.7523
C -16.9029 1.2888 18.9070
C -17.2680 1.3177 19.1444
C -17.6136 1.2867 19.4399
C -17.9697 1.0791 19.6731
C -18.1928 1.0178 19.8271
C -18.3381 0.9793 20.1187
C -18.6017 0.7900 20.5871
C -18.6791 0.7780 20.9281
C -19.0124 0.8251 20.9842
C -19.2801 0.7686 21.1044
C -19.5143 0.5634 21.4604
C -19.7465 0.5557 21.3799
C -20.0346 0.4138 21.6224
C -20.1317 0.3120 21.7816
C -20.3972 0.2057 22.0335
C -20.6799 0.2066 22.1708
C -21.0020 0.2289 22.3613
C -21.0533 0.2203 22.7009
C -21.3830 0.1832 22.8806
100
Atoms. Timestep: 11
C 0.0000 0.0000 0.0000
C 0.0883 -0.1549 0.2056
C 0.0198 -0.1675 0.6108
C -0.0665 -0.0104 0.9224
C -0.2597 0.0631 1.1650
C -0.4316 0.3086 1.4654
C -0.5528 0.3172 1.6725
C -0.7961 0.2494 1.9840
C -1.1031 0.4172 2.3173
C -1.3181 0.4090 2.5743
C -1.3674 0.4617 2.7426
C -1.4369 0.5177 3.1549
C -1.7023 0.7005 3.6013
C -1.8556 0.8116 3.8534
C -1.9766 0.9716 3.9841
C -2.1928 1.0014 4.1545
C -2.4072 1.1885 4.5732
C -2.4368 1.2358 4.9434
C -2.3433 1.3919 5.1314
C -2.5546 1.4781 5.5845
C -2.6841 1.5673 5.7180
C -2.6068 1.6158 6.0834
C -2.6994 1.7291 6.3990
C -2.7232 1.8748 6.7795
C -2.9195 2.1277 6.9424
C -2.7268 2.0926 7.2945
C -2.6469 2.2087 7.7528
C -2.6882 2.3620 8.0502
C -2.8280 2.4068 8.3065
C -3.0696 2.5613 8.5916
C -3.5074 2.5426 8.7887
C -3.6519 2.6433 9.0453
C -3.9987 2.6923 9.2688
C -4.2083 2.6975 9.3999
C -4.4259 2.6790 9.7022
C -4.7134 2.5657 10.1042
C -5.0136 2.5848 10.4352
C -5.2456 2.8343 10.7202
C -5.6409 3.0518 10.8876
C -6.1686 3.2565 11.1316
C -6.5117 3.1670 11.2045
C -6.7564 3.1521 11.5115
C -6.9514 3.0566 11.5619
C -7.3359 2.8793 11.7920
C -7.6289 2.8250 12.0530
C -8.1324 2.6201 12.0521
C -8.3564 2.2736 12.1763
C -8.5108 2.2440 12.3330
C -8.9497 2.3907 12.4606
C -9.1609 2.5759 12.6168
C -9.3813 2.6203 12.6759
C -9.5572 2.5768 12.9820
C -9.6701 2.5220 13.0823
C -9.9726 2.5931 13.2711
C -10.2173 2.4703 13.4740
C -10.4091 2.6597 13.8447
C -10.5507 2.8115 14.0316
C -10.8277 2.7848 14.2281
C -11.1306 2.8013 14.4413
C -11.1214 2.9654 14.6005
C -11.2508 3.0588 14.8714
C -11.4539 3.0790 15.2284
C -11.7410 3.1984 15.5670
C -11.9348 3.3404 15.9418
C -12.0851 3.4244 16.2696
C -12.3216 3.3662 16.4247
C -12.6495 3.3508 16.6551
C -12.6337 3.3615 16.9556
C -13.0144 3.4498 17.1498
C -13.2698 3.2609 17.1726
C -13.7548 3.3305 17.1215
C -14.1403 3.2128 17.3851
C -14.6807 3.1410 17.5887
C -15.0091 3.0001 17.8362
C -15.2184 2.8296 18.1188
C -15.6038 2.6111 18.2424
C -15.8788 2.3592 18.5351
C -15.9772 2.1713 18.7366
C -16.0364 2.0538 18.6738
C -16.1650 1.7170 18.8475
C -16.3576 1.4435 18.9831
C -16.6911 1.2400 19.1535
C -17.0943 1.2591 19.3195
C -17.4694 1.2268 19.5763