100
Atoms. Timestep: 0
C 0.0000 0.0000 0.0000
C -0.1787 -0.1169 0.4897
C -0.3416 -0.1376 0.9798
C -0.3647 -0.2606 1.4027
C -0.4505 -0.1677 1.8045
C -0.3379 -0.2235 1.9991
C -0.3495 -0.3745 2.3497
C -0.3667 -0.4237 2.7515
C -0.2288 -0.4239 3.2719
C -0.4402 -0.4953 3.7462
C -0.6340 -0.4057 4.0047
C -0.7769 -0.3012 4.5103
C -0.7497 -0.2726 4.8828
C -0.8261 -0.3888 5.2653
C -0.7463 -0.5293 5.7045
C -0.8771 -0.6897 6.0797
C -1.0363 -0.7029 6.3129
C -1.0412 -0.8250 6.6123
C -1.3319 -0.8528 6.8862
C -1.6122 -1.0637 7.1946
C -1.6735 -0.9785 7.5432
C -1.8635 -0.9745 7.9682
C -1.9845 -1.1067 8.3757
C -2.1542 -1.3079 8.5410
C -2.0746 -1.4338 8.6276
C -2.0968 -1.6521 9.0195
C -2.2463 -1.7309 9.1513
C -2.3348 -1.7958 9.2494
C -2.4119 -1.8122 9.4515
C -2.7177 -1.8353 9.8752
C -2.6534 -1.8478 10.2692
C -2.7905 -2.1504 10.5924
C -2.6195 -2.2734 10.7905
C -2.6508 -2.5150 11.1529
C -2.6290 -2.7440 11.3316
C -2.5127 -2.9646 11.8166
C -2.5493 -3.2940 12.1414
C -2.6221 -3.6103 12.5949
C -2.7098 -3.7927 12.7169
C -2.5495 -4.0220 12.9685
C -2.4885 -4.1638 13.3379
C -2.4491 -4.2069 13.5496
C -2.2854 -4.3602 13.9132
C -2.3456 -4.4204 14.1636
C -2.2970 -4.4590 14.4027
C -2.3057 -4.5735 14.7250
C -2.4271 -4.5210 15.3015
C -2.3118 -4.6602 15.6418
C -2.3094 -4.7982 16.0021
C -2.1985 -4.9612 16.3821
C -2.1017 -5.0875 16.5789
C -2.0812 -5.1128 16.6877
C -1.9158 -5.3049 16.7694
C -1.9847 -5.5009 17.0129
C -2.1098 -5.6937 17.2910
C -2.0233 -5.7510 17.6962
C -2.1463 -6.1352 18.0024
C -2.2202 -6.1581 18.3213
C -2.3277 -6.4519 18.4747
C -2.3758 -6.6138 18.7150
C -2.4094 -6.7162 18.8433
C -2.5415 -6.8542 19.2685
C -2.4704 -6.9886 19.5681
C -2.5489 -7.0543 19.6916
C -2.4759 -7.2596 20.1785
C -2.6717 -7.5092 20.4118
C -2.8284 -7.7993 20.6073
C -2.9874 -8.0926 20.8317
C -2.9971 -8.3765 21.1525
C -2.9309 -8.7393 21.5579
C -3.0216 -8.9266 21.8350
C -3.1814 -9.1575 22.2038
C -3.2431 -9.4352 22.5430
C -3.3116 -9.7544 22.9888
C -3.1693 -9.9845 23.1222
C -3.2160 -10.3395 23.2626
C -3.1817 -10.5410 23.5413
C -3.1106 -10.8303 23.7243
C -3.1327 -11.0275 24.0439
C -3.2338 -11.3016 24.3846
C -3.1591 -11.3517 24.8146
C -3.3403 -11.5373 25.1945
C -3.3166 -11.7323 25.4650
C -3.5772 -11.8087 25.8375
C -3.5828 -11.9340 26.0414
C -3.7041 -12.2554 26.2581
C -3.8062 -12.4766 26.6731
C -3.9495 -12.6695 27.1456
C -4.1381 -12.8552 27.4551
C -4.2560 -13.0593 27.6868
C -4.4730 -13.2295 27.9732
C -4.5044 -13.5594 28.2587
C -4.4462 -13.7245 28.4529
C -4.4566 -13.9222 28.5064
C -4.5351 -14.3818 28.5219
C -4.6820 -14.7315 28.6089
C -4.7195 -15.0073 28.6668
C -4.8687 -15.3843 28.9738
C -4.9197 -15.5333 29.3231
C -4.9062 -15.7504 29.5367
100
Atoms. Timestep: 1
C 0.0000 0.0000 0.0000
C -0.1787 -0.1169 0.4897
C -0.3416 -0.1376 0.9798
C -0.3647 -0.2606 1.4027
C -0.4505 -0.1677 1.8045
C -0.3379 -0.2235 1.9991
C -0.3495 -0.3745 2.3497
C -0.3667 -0.4237 2.7515
C -0.2288 -0.4239 3.2719
C -0.4402 -0.4953 3.7462
C -0.6340 -0.4057 4.0047
C -0.7769 -0.3012 4.5103
C -0.7497 -0.2726 4.8828
C -0.8261 -0.3888 5.2653
C -0.7463 -0.5293 5.7045
C -0.8771 -0.6897 6.0797
C -1.0363 -0.7029 6.3129
C -1.0412 -0.8250 6.6123
C -1.3319 -0.8528 6.8862
C -1.6122 -1.0637 7.1946
C -1.6735 -0.9785 7.5432
C -1.8635 -0.9745 7.9682
C -1.9845 -1.1067 8.3757
C -2.1542 -1.3079 8.5410
C -2.0746 -1.4338 8.6276
C -2.0968 -1.6521 9.0195
C -2.2463 -1.7309 9.1513
C -2.3348 -1.7958 9.2494
C -2.4119 -1.8122 9.4515
C -2.7177 -1.8353 9.8752
C -2.6534 -1.8478 10.2692
C -2.7905 -2.1504 10.5924
C -2.6195 -2.2734 10.7905
C -2.6508 -2.5150 11.1529
C -2.6290 -2.7440 11.3316
C -2.5127 -2.9646 11.8166
C -2.5493 -3.2940 12.1414
C -2.6221 -3.6103 12.5949
C -2.7098 -3.7927 12.7169
C -2.5495 -4.0220 12.9685
C -2.4885 -4.1638 13.3379
C -2.4491 -4.2069 13.5496
C -2.2854 -4.3602 13.9132
C -2.3456 -4.4204 14.1636
C -2.2970 -4.4590 14.4027
C -2.3057 -4.5735 14.7250
C -2.4271 -4.5210 15.3015
C -2.3118 -4.6602 15.6418
C -2.3094 -4.7982 16.0021
C -2.1985 -4.9612 16.3821
C -2.1017 -5.0875 16.5789
C -2.0812 -5.1128 16.6877
C -1.9158 -5.3049 16.7694
C -1.9847 -5.5009 17.0129
C -2.1105 -5.6973 17.2881
C -2.0299 -5.7541 17.6946
C -2.1500 -6.1419 17.9974
C -2.2290 -6.1675 18.3149
C -2.3329 -6.4641 18.4655
C -2.3817 -6.6277 18.7044
C -2.4153 -6.7313 18.8317
C -2.5519 -6.8736 19.2541
C -2.4833 -7.0075 19.5545
C -2.5625 -7.0753 19.6764
C -2.4936 -7.2806 20.1639
C -2.6881 -7.5352 20.3929
C -2.8420 -7.8293 20.5848
C -2.9986 -8.1266 20.8054
C -3.0079 -8.4118 21.1251
C -2.9410 -8.7745 21.5305
C -3.0326 -8.9647 21.8054
C -3.1938 -9.2002 22.1706
C -3.2556 -9.4803 22.5078
C -3.3251 -9.8024 22.9513
C -3.1802 -10.0299 23.0864
C -3.2218 -10.3863 23.2249
C -3.1881 -10.5880 23.5036
C -3.1140 -10.8763 23.6869
C -3.1375 -11.0751 24.0055
C -3.2387 -11.3525 24.3434
C -3.1704 -11.4025 24.7746
C -3.3543 -11.5932 25.1506
C -3.3312 -11.7886 25.4209
C -3.5966 -11.8718 25.7885
C -3.6031 -11.9979 25.9919
C -3.7213 -12.3226 26.2054
C -3.8259 -12.5474 26.6179
C -3.9733 -12.7449 27.0872
C -4.1632 -12.9356 27.3927
C -4.2809 -13.1430 27.6217
C -4.4991 -13.3188 27.9037
C -4.5285 -13.6502 28.1876
C -4.4702 -13.8147 28.3822
C -4.4773 -14.0128 28.4350
C -4.5462 -14.4740 28.4476
C -4.6871 -14.8271 28.5310
C -4.7198 -15.1038 28.5874
C -4.8663 -15.4849 28.8905
C -4.9202 -15.6362 29.2384
C -4.9059 -15.8537 29.4515
100
Atoms. Timestep: 2
C 0.0000 0.0000 0.0000
C -0.1787 -0.1169 0.4897
C -0.3416 -0.1376 0.9798
C -0.3647 -0.2606 1.4027
C -0.4505 -0.1677 1.8045
C -0.3379 -0.2235 1.9991
C -0.3495 -0.3745 2.3497
C -0.3667 -0.4237 2.7515
C -0.2288 -0.4239 3.2719
C -0.4402 -0.4953 3.7462
C -0.6340 -0.4057 4.0047
C -0.7769 -0.3012 4.5103
C -0.7497 -0.2726 4.8828
C -0.8261 -0.3888 5.2653
C -0.7463 -0.5293 5.7045
C -0.8771 -0.6897 6.0797
C -1.0363 -0.7029 6.3129
C -1.0412 -0.8250 6.6123
C -1.3319 -0.8528 6.8862
C -1.6122 -1.0637 7.1946
C -1.6735 -0.9785 7.5432
C -1.8635 -0.9745 7.9682
C -1.9845 -1.1067 8.3757
C -2.1542 -1.3079 8.5410
C -2.0746 -1.4338 8.6276
C -2.0968 -1.6521 9.0195
C -2.2463 -1.7309 9.1513
C -2.3348 -1.7958 9.2494
C -2.4119 -1.8122 9.4515
C -2.7177 -1.8353 9.8752
C -2.6534 -1.8478 10.2692
C -2.7905 -2.1504 10.5924
C -2.6195 -2.2734 10.7905
C -2.6508 -2.5150 11.1529
C -2.6290 -2.7440 11.3316
C -2.5127 -2.9646 11.8166
C -2.5493 -3.2940 12.1414
C -2.6221 -3.6103 12.5949
C -2.7098 -3.7927 12.7169
C -2.5495 -4.0220 12.9685
C -2.4885 -4.1638 13.3379
C -2.4491 -4.2069 13.5496
C -2.2854 -4.3602 13.9132
C -2.3456 -4.4204 14.1636
C -2.2970 -4.4590 14.4027
C -2.3057 -4.5735 14.7250
C -2.4271 -4.5210 15.3015
C -2.3118 -4.6602 15.6418
C -2.3094 -4.7982 16.0021
C -2.1985 -4.9612 16.3821
C -2.1017 -5.0875 16.5789
C -2.0764 -5.1071 16.6879
C -1.8986 -5.2867 16.7717
C -1.9493 -5.4755 17.0251
C -2.0546 -5.6592 17.3173
C -1.9379 -5.6941 17.7174
C -2.0245 -6.0673 18.0486
C -2.0749 -6.0776 18.3727
C -2.1715 -6.3543 18.5614
C -2.2005 -6.4867 18.8219
C -2.2158 -6.5739 18.9641
C -2.2799 -6.6845 19.4124
C -2.1579 -6.7658 19.7147
C -2.2113 -6.8277 19.8527
C -2.0570 -6.9543 20.3474
C -2.1817 -7.2039 20.6253
C -2.2649 -7.4912 20.8652
C -2.3573 -7.7826 21.1262
C -2.3306 -8.0477 21.4618
C -2.2295 -8.3659 21.8964
C -2.2875 -8.5541 22.1816
C -2.3850 -8.8031 22.5603
C -2.3540 -9.0599 22.9195
C -2.3071 -9.3532 23.3854
C -2.1104 -9.5460 23.5085
C -2.0754 -9.8928 23.6711
C -1.9726 -10.0656 23.9522
C -1.8561 -10.3265 24.1537
C -1.7974 -10.4672 24.4976
C -1.8325 -10.6530 24.9046
C -1.6793 -10.6156 25.3147
C -1.7966 -10.6896 25.7532
C -1.7134 -10.8370 26.0415
C -1.8522 -10.8106 26.4803
C -1.8099 -10.9021 26.6975
C -1.8977 -11.1618 26.9973
C -1.8945 -11.3018 27.4577
C -1.9082 -11.3988 27.9786
C -2.0079 -11.5188 28.3547
C -2.0754 -11.6738 28.6388
C -2.2177 -11.7976 28.9887
C -2.2063 -12.1082 29.2965
C -2.1115 -12.2757 29.4734
C -2.1276 -12.4714 29.5329
C -2.2462 -12.9200 29.5804
C -2.4429 -13.2245 29.7220
C -2.5347 -13.4789 29.8096
C -2.6771 -13.7780 30.1955
C -2.6610 -13.8760 30.5656
C -2.6334 -14.0680 30.8007
100
Atoms. Timestep: 3
C 0.0000 0.0000 0.0000
C -0.1787 -0.1169 0.4897
C -0.3416 -0.1376 0.9798
C -0.3647 -0.2606 1.4027
C -0.4505 -0.1677 1.8045
C -0.3379 -0.2235 1.9991
C -0.3495 -0.3745 2.3497
C -0.3667 -0.4237 2.7515
C -0.2288 -0.4239 3.2719
C -0.4402 -0.4953 3.7462
C -0.6340 -0.4057 4.0047
C -0.7769 -0.3012 4.5103
C -0.7497 -0.2726 4.8828
C -0.8261 -0.3888 5.2653
C -0.7463 -0.5293 5.7045
C -0.8771 -0.6897 6.0797
C -1.0363 -0.7029 6.3129
C -1.0412 -0.8250 6.6123
C -1.3319 -0.8528 6.8862
C -1.6122 -1.0637 7.1946
C -1.6735 -0.9785 7.5432
C -1.8635 -0.9745 7.9682
C -1.9845 -1.1067 8.3757
C -2.1542 -1.3079 8.5410
C -2.0746 -1.4338 8.6276
C -2.0968 -1.6521 9.0195
C -2.2463 -1.7309 9.1513
C -2.3348 -1.7958 9.2494
C -2.4119 -1.8122 9.4515
C -2.7177 -1.8353 9.8752
C -2.6534 -1.8478 10.2692
C -2.7905 -2.1504 10.5924
C -2.6195 -2.2734 10.7905
C -2.6508 -2.5150 11.1529
C -2.6290 -2.7440 11.3316
C -2.5127 -2.9646 11.8166
C -2.5493 -3.2940 12.1414
C -2.6221 -3.6103 12.5949
C -2.7098 -3.7927 12.7169
C -2.5495 -4.0220 12.9685
C -2.4885 -4.1638 13.3379
C -2.4491 -4.2069 13.5496
C -2.2854 -4.3602 13.9132
C -2.3456 -4.4204 14.1636
C -2.2970 -4.4590 14.4027
C -2.3057 -4.5735 14.7250
C -2.4271 -4.5210 15.3015
C -2.3118 -4.6602 15.6418
C -2.3094 -4.7982 16.0021
C -2.1985 -4.9612 16.3821
C -2.1017 -5.0875 16.5789
C -2.0772 -5.1075 16.6880
C -1.9002 -5.2876 16.7725
C -1.9696 -5.4821 17.0170
C -2.1016 -5.6626 17.3001
C -2.0190 -5.6905 17.7092
C -2.1526 -6.0473 18.0429
C -2.2316 -6.0262 18.3607
C -2.3612 -6.2909 18.5466
C -2.4308 -6.4232 18.7994
C -2.4703 -6.5104 18.9369
C -2.5843 -6.6177 19.3760
C -2.5097 -6.7375 19.6809
C -2.5875 -6.8100 19.8010
C -2.4965 -7.0604 20.2631
C -2.6760 -7.3441 20.4689
C -2.8106 -7.6544 20.6494
C -2.9576 -7.9689 20.8520
C -3.0090 -8.2519 21.1697
C -3.0061 -8.6051 21.5887
C -3.1265 -8.7954 21.8522
C -3.2962 -9.0591 22.1936
C -3.3456 -9.3577 22.5166
C -3.3547 -9.7114 22.9410
C -3.1921 -9.9387 23.0546
C -3.2069 -10.3064 23.1664
C -3.1092 -10.5287 23.4123
C -3.0068 -10.8260 23.5652
C -2.9333 -11.0311 23.8719
C -2.9889 -11.2798 24.2413
C -2.8419 -11.3225 24.6531
C -2.9728 -11.4609 25.0718
C -2.8955 -11.6462 25.3391
C -3.0373 -11.6777 25.7766
C -2.9870 -11.7934 25.9801
C -3.0623 -12.0958 26.2407
C -3.0211 -12.3528 26.6454
C -2.9984 -12.5840 27.1218
C -3.0611 -12.8190 27.4485
C -3.0961 -13.0557 27.6766
C -3.1895 -13.3006 27.9755
C -3.1427 -13.6954 28.1578
C -3.0064 -13.8992 28.2486
C -2.9849 -14.1016 28.2230
C -3.0301 -14.5468 28.0915
C -3.1497 -14.9172 28.0963
C -3.1843 -15.1978 28.0670
C -3.1802 -15.6616 28.2756
C -3.0655 -15.9034 28.5499
C -2.9667 -16.1634 28.6747
100
Atoms. Timestep: 4
C 0.0000 0.0000 0.0000
C -0.1787 -0.1169 0.4897
C -0.3416 -0.1376 0.9798
C -0.3647 -0.2606 1.4027
C -0.4505 -0.1677 1.8045
C -0.3379 -0.2235 1.9991
C -0.3495 -0.3745 2.3497
C -0.3667 -0.4237 2.7515
C -0.2288 -0.4239 3.2719
C -0.4402 -0.4953 3.7462
C -0.6340 -0.4057 4.0047
C -0.7769 -0.3012 4.5103
C -0.7497 -0.2726 4.8828
C -0.8261 -0.3888 5.2653
C -0.7463 -0.5293 5.7045
C -0.8771 -0.6897 6.0797
C -1.0363 -0.7029 6.3129
C -1.0412 -0.8250 6.6123
C -1.3319 -0.8528 6.8862
C -1.6122 -1.0637 7.1946
C -1.6735 -0.9785 7.5432
C -1.8635 -0.9745 7.9682
C -1.9845 -1.1067 8.3757
C -2.1542 -1.3079 8.5410
C -2.0746 -1.4338 8.6276
C -2.0968 -1.6521 9.0195
C -2.2463 -1.7309 9.1513
C -2.3348 -1.7958 9.2494
C -2.4119 -1.8122 9.4515
C -2.7177 -1.8353 9.8752
C -2.6534 -1.8478 10.2692
C -2.7905 -2.1504 10.5924
C -2.6195 -2.2734 10.7905
C -2.6508 -2.5150 11.1529
C -2.6290 -2.7440 11.3316
C -2.5127 -2.9646 11.8166
C -2.5493 -3.2940 12.1414
C -2.6221 -3.6103 12.5949
C -2.7098 -3.7927 12.7169
C -2.5495 -4.0220 12.9685
C -2.4885 -4.1638 13.3379
C -2.4491 -4.2069 13.5496
C -2.2854 -4.3602 13.9132
C -2.3456 -4.4204 14.1636
C -2.2970 -4.4590 14.4027
C -2.3057 -4.5735 14.7250
C -2.4271 -4.5210 15.3015
C -2.3118 -4.6602 15.6418
C -2.3094 -4.7982 16.0021
C -2.1985 -4.9612 16.3821
C -2.1017 -5.0875 16.5789
C -2.0700 -5.1057 16.6865
C -1.8902 -5.2855 16.7655
C -1.9536 -5.4651 17.0228
C -2.0815 -5.6314 17.3162
C -2.0012 -5.6357 17.7267
C -2.1170 -5.9750 18.0844
C -2.2234 -5.9505 18.3939
C -2.3456 -6.2153 18.5847
C -2.4465 -6.3239 18.8382
C -2.4951 -6.3978 18.9805
C -2.6357 -6.4698 19.4190
C -2.5758 -6.5442 19.7412
C -2.6559 -6.6103 19.8634
C -2.5800 -6.7934 20.3586
C -2.7243 -7.0878 20.5767
C -2.8197 -7.4035 20.7723
C -2.9235 -7.7179 21.0002
C -2.9339 -7.9769 21.3415
C -2.8874 -8.2809 21.7951
C -2.9847 -8.4637 22.0730
C -3.1257 -8.7160 22.4354
C -3.1385 -8.9782 22.7919
C -3.1095 -9.2726 23.2585
C -2.9239 -9.4487 23.4184
C -2.8882 -9.8061 23.5559
C -2.7856 -9.9889 23.8307
C -2.6491 -10.2570 24.0089
C -2.5764 -10.4358 24.3318
C -2.6290 -10.6802 24.7044
C -2.5266 -10.7058 25.1309
C -2.6767 -10.8826 25.5280
C -2.5968 -11.0584 25.8009
C -2.8134 -11.1254 26.2023
C -2.7823 -11.2321 26.4144
C -2.8456 -11.5479 26.6619
C -2.8349 -11.7984 27.0727
C -2.8987 -12.0326 27.5438
C -3.0020 -12.2859 27.8455
C -3.0335 -12.5288 28.0675
C -3.1450 -12.7773 28.3571
C -3.0614 -13.1424 28.5830
C -2.9120 -13.3043 28.7237
C -2.8406 -13.4966 28.7239
C -2.7903 -13.9523 28.6379
C -2.8194 -14.3377 28.6838
C -2.7829 -14.6195 28.6925
C -2.7374 -15.0479 28.9627
C -2.6467 -15.2471 29.2772
C -2.5421 -15.4794 29.4446
100
Atoms. Timestep: 5
C 0.0000 0.0000 0.0000
C -0.1787 -0.1169 0.4897
C -0.3416 -0.1376 0.9798
C -0.3647 -0.2606 1.4027
C -0.4505 -0.1677 1.8045
C -0.3379 -0.2235 1.9991
C -0.3495 -0.3745 2.3497
C -0.3667 -0.4237 2.7515
C -0.2288 -0.4239 3.2719
C -0.4402 -0.4953 3.7462
C -0.6340 -0.4057 4.0047
C -0.7769 -0.3012 4.5103
C -0.7497 -0.2726 4.8828
C -0.8261 -0.3888 5.2653
C -0.7463 -0.5293 5.7045
C -0.8771 -0.6897 6.0797
C -1.0363 -0.7029 6.3129
C -1.0412 -0.8250 6.6123
C -1.3319 -0.8528 6.8862
C -1.6122 -1.0637 7.1946
C -1.6735 -0.9785 7.5432
C -1.8635 -0.9745 7.9682
C -1.9845 -1.1067 8.3757
C -2.1542 -1.3079 8.5410
C -2.0746 -1.4338 8.6276
C -2.0968 -1.6521 9.0195
C -2.2463 -1.7309 9.1513
C -2.3348 -1.7958 9.2494
C -2.4119 -1.8122 9.4515
C -2.7177 -1.8353 9.8752
C -2.6534 -1.8478 10.2692
C -2.7905 -2.1504 10.5924
C -2.6195 -2.2734 10.7905
C -2.6508 -2.5150 11.1529
C -2.6290 -2.7440 11.3316
C -2.5127 -2.9646 11.8166
C -2.5493 -3.2940 12.1414
C -2.6221 -3.6103 12.5949
C -2.7098 -3.7927 12.7169
C -2.5495 -4.0220 12.9685
C -2.4885 -4.1638 13.3379
C -2.4491 -4.2069 13.5496
C -2.2854 -4.3602 13.9132
C -2.3456 -4.4204 14.1636
C -2.2970 -4.4590 14.4027
C -2.3057 -4.5735 14.7250
C -2.4271 -4.5210 15.3015
C -2.3118 -4.6602 15.6418
C -2.3094 -4.7982 16.0021
C -2.1985 -4.9612 16.3821
C -2.1017 -5.0875 16.5789
C -2.0702 -5.1057 16.6865
C -1.8906 -5.2855 16.7659
C -1.9491 -5.4644 17.0248
C -2.0675 -5.6061 17.3347
C -1.9636 -5.5944 17.7397
C -2.0698 -5.9122 18.1194
C -2.1573 -5.8695 18.4328
C -2.2775 -6.1129 18.6514
C -2.3626 -6.1978 18.9193
C -2.4030 -6.2589 19.0700
C -2.5098 -6.2925 19.5225
C -2.4169 -6.3424 19.8415
C -2.4878 -6.4061 19.9705
C -2.3799 -6.5590 20.4701
C -2.4952 -6.8518 20.7068
C -2.5646 -7.1650 20.9168
C -2.6528 -7.4540 21.1818
C -2.6544 -7.6641 21.5553
C -2.5725 -7.9153 22.0355
C -2.6474 -8.0713 22.3357
C -2.7830 -8.2701 22.7320
C -2.7778 -8.4630 23.1303
C -2.7312 -8.6610 23.6441
C -2.5257 -8.7508 23.8459
C -2.4344 -9.0288 24.0954
C -2.3109 -9.0984 24.4106
C -2.1300 -9.2670 24.6577
C -2.0445 -9.3289 25.0188
C -2.0787 -9.4951 25.4343
C -2.0118 -9.4188 25.8618
C -2.1620 -9.5435 26.2782
C -2.0751 -9.6443 26.5849
C -2.3266 -9.6922 26.9682
C -2.3061 -9.7549 27.1984
C -2.3351 -10.0356 27.4906
C -2.3386 -10.2244 27.9332
C -2.4752 -10.3996 28.4145
C -2.6002 -10.6411 28.7175
C -2.6164 -10.8418 28.9798
C -2.7251 -11.0590 29.2945
C -2.6089 -11.3453 29.6041
C -2.4463 -11.4436 29.7836
C -2.3418 -11.6143 29.8285
C -2.2034 -12.0595 29.8415
C -2.1670 -12.4269 29.9648
C -2.0742 -12.6869 30.0326
C -1.9727 -13.0619 30.3608
C -1.8750 -13.1996 30.7048
C -1.7740 -13.3904 30.9200
100
Atoms. Timestep: 6
C 0.0000 0.0000 0.0000
C -0.1787 -0.1169 0.4897
C -0.3416 -0.1376 0.9798
C -0.3647 -0.2606 1.4027
C -0.4505 -0.1677 1.8045
C -0.3379 -0.2235 1.9991
C -0.3495 -0.3745 2.3497
C -0.3667 -0.4237 2.7515
C -0.2288 -0.4239 3.2719
C -0.4402 -0.4953 3.7462
C -0.6340 -0.4057 4.0047
C -0.7769 -0.3012 4.5103
C -0.7497 -0.2726 4.8828
C -0.8261 -0.3888 5.2653
C -0.7463 -0.5293 5.7045
C -0.8771 -0.6897 6.0797
C -1.0363 -0.7029 6.3129
C -1.0412 -0.8250 6.6123
C -1.3319 -0.8528 6.8862
C -1.6122 -1.0637 7.1946
C -1.6735 -0.9785 7.5432
C -1.8635 -0.9745 7.9682
C -1.9845 -1.1067 8.3757
C -2.1542 -1.3079 8.5410
C -2.0746 -1.4338 8.6276
C -2.0968 -1.6521 9.0195
C -2.2463 -1.7309 9.1513
C -2.3348 -1.7958 9.2494
C -2.4119 -1.8122 9.4515
C -2.7177 -1.8353 9.8752
C -2.6534 -1.8478 10.2692
C -2.7905 -2.1504 10.5924
C -2.6195 -2.2734 10.7905
C -2.6508 -2.5150 11.1529
C -2.6290 -2.7440 11.3316
C -2.5127 -2.9646 11.8166
C -2.5493 -3.2940 12.1414
C -2.6221 -3.6103 12.5949
C -2.7098 -3.7927 12.7169
C -2.5495 -4.0220 12.9685
C -2.4885 -4.1638 13.3379
C -2.4491 -4.2069 13.5496
C -2.2854 -4.3602 13.9132
C -2.3456 -4.4204 14.1636
C -2.2970 -4.4590 14.4027
C -2.3057 -4.5735 14.7250
C -2.4271 -4.5210 15.3015
C -2.3118 -4.6602 15.6418
C -2.3094 -4.7982 16.0021
C -2.1985 -4.9612 16.3821
C -2.1017 -5.0875 16.5789
C -2.0701 -5.1057 16.6865
C -1.8928 -5.2857 16.7705
C -1.9588 -5.4744 17.0205
C -2.0746 -5.6397 17.3195
C -1.9693 -5.6618 17.7237
C -2.0661 -5.9873 18.0994
C -2.1473 -5.9413 18.4141
C -2.2737 -6.1798 18.6345
C -2.3644 -6.2519 18.9043
C -2.4126 -6.3008 19.0571
C -2.5339 -6.3029 19.5072
C -2.4454 -6.3537 19.8273
C -2.5207 -6.4053 19.9592
C -2.4149 -6.5612 20.4582
C -2.5600 -6.8314 20.7052
C -2.6398 -7.1264 20.9366
C -2.7278 -7.3938 21.2235
C -2.7161 -7.5828 21.6080
C -2.6163 -7.8120 22.0957
C -2.6534 -7.9573 22.4082
C -2.8010 -8.1739 22.7905
C -2.8077 -8.3908 23.1763
C -2.7744 -8.6214 23.6773
C -2.5885 -8.7322 23.8876
C -2.5203 -9.0220 24.1309
C -2.4074 -9.1078 24.4461
C -2.2425 -9.2956 24.6907
C -2.1623 -9.3860 25.0469
C -2.2145 -9.5758 25.4502
C -2.1342 -9.5371 25.8804
C -2.2722 -9.6533 26.3035
C -2.1771 -9.7569 26.6068
C -2.4006 -9.8236 27.0044
C -2.3745 -9.8929 27.2321
C -2.3794 -10.1818 27.5177
C -2.3580 -10.3628 27.9631
C -2.4681 -10.5328 28.4529
C -2.5490 -10.7929 28.7557
C -2.5372 -10.9916 29.0196
C -2.5763 -11.2023 29.3544
C -2.3767 -11.4430 29.6603
C -2.1760 -11.5001 29.8178
C -2.0434 -11.6544 29.8437
C -1.8713 -12.0880 29.8412
C -1.8093 -12.4573 29.9471
C -1.7040 -12.7181 29.9889
C -1.5550 -13.1141 30.2710
C -1.3902 -13.2740 30.5777
C -1.2565 -13.4811 30.7571
100
Atoms. Timestep: 7
C 0.0000 0.0000 0.0000
C -0.1787 -0.1169 0.4897
C -0.3416 -0.1376 0.9798
C -0.3647 -0.2606 1.4027
C -0.4505 -0.1677 1.8045
C -0.3379 -0.2235 1.9991
C -0.3495 -0.3745 2.3497
C -0.3667 -0.4237 2.7515
C -0.2288 -0.4239 3.2719
C -0.4402 -0.4953 3.7462
C -0.6340 -0.4057 4.0047
C -0.7769 -0.3012 4.5103
C -0.7497 -0.2726 4.8828
C -0.8261 -0.3888 5.2653
C -0.7463 -0.5293 5.7045
C -0.8771 -0.6897 6.0797
C -1.0363 -0.7029 6.3129
C -1.0412 -0.8250 6.6123
C -1.3319 -0.8528 6.8862
C -1.6122 -1.0637 7.1946
C -1.6735 -0.9785 7.5432
C -1.8635 -0.9745 7.9682
C -1.9845 -1.1067 8.3757
C -2.1542 -1.3079 8.5410
C -2.0746 -1.4338 8.6276
C -2.0968 -1.6521 9.0195
C -2.2463 -1.7309 9.1513
C -2.3348 -1.7958 9.2494
C -2.4119 -1.8122 9.4515
C -2.7177 -1.8353 9.8752
C -2.6534 -1.8478 10.2692
C -2.7905 -2.1504 10.5924
C -2.6195 -2.2734 10.7905
C -2.6508 -2.5150 11.1529
C -2.6290 -2.7440 11.3316
C -2.5127 -2.9646 11.8166
C -2.5493 -3.2940 12.1414
C -2.6221 -3.6103 12.5949
C -2.7098 -3.7927 12.7169
C -2.5495 -4.0220 12.9685
C -2.4885 -4.1638 13.3379
C -2.4491 -4.2069 13.5496
C -2.2854 -4.3602 13.9132
C -2.3456 -4.4204 14.1636
C -2.2970 -4.4590 14.4027
C -2.3057 -4.5735 14.7250
C -2.4271 -4.5210 15.3015
C -2.3118 -4.6602 15.6418
C -2.3094 -4.7982 16.0021
C -2.1985 -4.9612 16.3821
C -2.1017 -5.0875 16.5789
C -2.0710 -5.1125 16.6854
C -1.9030 -5.3025 16.7663
C -1.9854 -5.5061 16.9991
C -2.0994 -5.6965 17.2835
C -1.9931 -5.7516 17.6843
C -2.0797 -6.1054 18.0361
C -2.1427 -6.0884 18.3578
C -2.2706 -6.3422 18.5595
C -2.3517 -6.4375 18.8251
C -2.3965 -6.4881 18.9784
C -2.4890 -6.4874 19.4353
C -2.3868 -6.5551 19.7482
C -2.4549 -6.6002 19.8862
C -2.3343 -6.8030 20.3646
C -2.4949 -7.0927 20.5776
C -2.5929 -7.4097 20.7697
C -2.7067 -7.7043 21.0183
C -2.7070 -7.9441 21.3735
C -2.6840 -8.2482 21.8289
C -2.7555 -8.4226 22.1197
C -2.9549 -8.6648 22.4610
C -3.0135 -8.9172 22.8199
C -3.0511 -9.2028 23.2914
C -2.8975 -9.3517 23.5041
C -2.8744 -9.6722 23.7155
C -2.7867 -9.8143 24.0180
C -2.6415 -10.0546 24.2265
C -2.5916 -10.2057 24.5674
C -2.6707 -10.4233 24.9518
C -2.6012 -10.4265 25.3857
C -2.7608 -10.5659 25.7939
C -2.6834 -10.7012 26.0896
C -2.9237 -10.7826 26.4745
C -2.9096 -10.8815 26.6921
C -2.9617 -11.2012 26.9372
C -2.9660 -11.4490 27.3497
C -3.0924 -11.7058 27.7959
C -3.1789 -12.0124 28.0496
C -3.1752 -12.2544 28.2747
C -3.2200 -12.5150 28.5716
C -3.0278 -12.8100 28.8310
C -2.8283 -12.9000 28.9740
C -2.7122 -13.0691 28.9703
C -2.5812 -13.5110 28.8989
C -2.5520 -13.8929 28.9682
C -2.4773 -14.1671 28.9754
C -2.3333 -14.5958 29.2080
C -2.1154 -14.7858 29.4594
C -1.9582 -15.0116 29.5907
100
Atoms. Timestep: 8
C 0.0000 0.0000 0.0000
C -0.1787 -0.1169 0.4897
C -0.3416 -0.1376 0.9798
C -0.3647 -0.2606 1.4027
C -0.4505 -0.1677 1.8045
C -0.3379 -0.2235 1.9991
C -0.3495 -0.3745 2.3497
C -0.3667 -0.4237 2.7515
C -0.2288 -0.4239 3.2719
C -0.4402 -0.4953 3.7462
C -0.6340 -0.4057 4.0047
C -0.7769 -0.3012 4.5103
C -0.7497 -0.2726 4.8828
C -0.8261 -0.3888 5.2653
C -0.7463 -0.5293 5.7045
C -0.8771 -0.6897 6.0797
C -1.0363 -0.7029 6.3129
C -1.0412 -0.8250 6.6123
C -1.3319 -0.8528 6.8862
C -1.6122 -1.0637 7.1946
C -1.6735 -0.9785 7.5432
C -1.8635 -0.9745 7.9682
C -1.9845 -1.1067 8.3757
C -2.1542 -1.3079 8.5410
C -2.0746 -1.4338 8.6276
C -2.0968 -1.6521 9.0195
C -2.2463 -1.7309 9.1513
C -2.3348 -1.7958 9.2494
C -2.4119 -1.8122 9.4515
C -2.7177 -1.8353 9.8752
C -2.6534 -1.8478 10.2692
C -2.7905 -2.1504 10.5924
C -2.6195 -2.2734 10.7905
C -2.6508 -2.5150 11.1529
C -2.6290 -2.7440 11.3316
C -2.5127 -2.9646 11.8166
C -2.5493 -3.2940 12.1414
C -2.6221 -3.6103 12.5949
C -2.7098 -3.7927 12.7169
C -2.5495 -4.0220 12.9685
C -2.4885 -4.1638 13.3379
C -2.4491 -4.2069 13.5496
C -2.2854 -4.3602 13.9132
C -2.3456 -4.4204 14.1636
C -2.2970 -4.4590 14.4027
C -2.3057 -4.5735 14.7250
C -2.4271 -4.5210 15.3015
C -2.3118 -4.6602 15.6418
C -2.3094 -4.7982 16.0021
C -2.1985 -4.9612 16.3821
C -2.1017 -5.0875 16.5789
C -2.0740 -5.1141 16.6858
C -1.9297 -5.3170 16.7801
C -2.0342 -5.5137 17.0100
C -2.1511 -5.6990 17.2966
C -2.0182 -5.7386 17.6912
C -2.1111 -6.0571 18.0739
C -2.1453 -6.0122 18.3972
C -2.2814 -6.2369 18.6262
C -2.3786 -6.2981 18.8965
C -2.4321 -6.3293 19.0521
C -2.5847 -6.2655 19.4879
C -2.5270 -6.2903 19.8180
C -2.6206 -6.3175 19.9454
C -2.5603 -6.4837 20.4486
C -2.7696 -6.7375 20.6650
C -2.8851 -7.0338 20.8792
C -3.0352 -7.2953 21.1450
C -3.0891 -7.4944 21.5207
C -3.1705 -7.7622 21.9918
C -3.3065 -7.9151 22.2716
C -3.5784 -8.1338 22.5767
C -3.7463 -8.3482 22.9257
C -3.9203 -8.5869 23.3926
C -3.8175 -8.7011 23.6522
C -3.8098 -8.9981 23.8964
C -3.7799 -9.0966 24.2263
C -3.6460 -9.2816 24.4911
C -3.6331 -9.3874 24.8519
C -3.7602 -9.5703 25.2415
C -3.7653 -9.5223 25.6782
C -3.9691 -9.6459 26.0715
C -3.9316 -9.7493 26.3872
C -4.2277 -9.8520 26.7253
C -4.2435 -9.9371 26.9485
C -4.2954 -10.2523 27.1995
C -4.3462 -10.4824 27.6190
C -4.5512 -10.7109 28.0512
C -4.7039 -10.9851 28.3106
C -4.7672 -11.2122 28.5424
C -4.8979 -11.4468 28.8355
C -4.8180 -11.7394 29.1506
C -4.6760 -11.8406 29.3454
C -4.5790 -12.0178 29.3812
C -4.4525 -12.4668 29.3796
C -4.4661 -12.8479 29.4576
C -4.4145 -13.1256 29.4890
C -4.3520 -13.5646 29.7381
C -4.2063 -13.7704 30.0266
C -4.0811 -13.9862 30.2019
100
Atoms. Timestep: 9
C 0.0000 0.0000 0.0000
C -0.1787 -0.1169 0.4897
C -0.3416 -0.1376 0.9798
C -0.3647 -0.2606 1.4027
C -0.4505 -0.1677 1.8045
C -0.3379 -0.2235 1.9991
C -0.3495 -0.3745 2.3497
C -0.3667 -0.4237 2.7515
C -0.2288 -0.4239 3.2719
C -0.4402 -0.4953 3.7462
C -0.6340 -0.4057 4.0047
C -0.7769 -0.3012 4.5103
C -0.7497 -0.2726 4.8828
C -0.8261 -0.3888 5.2653
C -0.7463 -0.5293 5.7045
C -0.8771 -0.6897 6.0797
C -1.0363 -0.7029 6.3129
C -1.0412 -0.8250 6.6123
C -1.3319 -0.8528 6.8862
C -1.6122 -1.0637 7.1946
C -1.6735 -0.9785 7.5432
C -1.8635 -0.9745 7.9682
C -1.9845 -1.1067 8.3757
C -2.1542 -1.3079 8.5410
C -2.0746 -1.4338 8.6276
C -2.0968 -1.6521 9.0195
C -2.2463 -1.7309 9.1513
C -2.3348 -1.7958 9.2494
C -2.4119 -1.8122 9.4515
C -2.7177 -1.8353 9.8752
C -2.6534 -1.8478 10.2692
C -2.7905 -2.1504 10.5924
C -2.6195 -2.2734 10.7905
C -2.6508 -2.5150 11.1529
C -2.6290 -2.7440 11.3316
C -2.5127 -2.9646 11.8166
C -2.5493 -3.2940 12.1414
C -2.6221 -3.6103 12.5949
C -2.7098 -3.7927 12.7169
C -2.5495 -4.0220 12.9685
C -2.4885 -4.1638 13.3379
C -2.4491 -4.2069 13.5496
C -2.2854 -4.3602 13.9132
C -2.3456 -4.4204 14.1636
C -2.2970 -4.4590 14.4027
C -2.3057 -4.5735 14.7250
C -2.4271 -4.5210 15.3015
C -2.3118 -4.6602 15.6418
C -2.3094 -4.7982 16.0021
C -2.1985 -4.9612 16.3821
C -2.1017 -5.0875 16.5789
C -2.0740 -5.1141 16.6858
C -1.9153 -5.3114 16.7683
C -1.9947 -5.5210 16.9968
C -2.0883 -5.7409 17.2671
C -1.9718 -5.7897 17.6658
C -2.0840 -6.1497 18.0038
C -2.1479 -6.1421 18.3256
C -2.2820 -6.3987 18.5196
C -2.3969 -6.4978 18.7711
C -2.4483 -6.5532 18.9206
C -2.6198 -6.5437 19.3540
C -2.5714 -6.5965 19.6822
C -2.6591 -6.6498 19.8055
C -2.5754 -6.9085 20.2644
C -2.7599 -7.1964 20.4598
C -2.8671 -7.5322 20.6105
C -2.9850 -7.8461 20.8321
C -3.0275 -8.0913 21.1810
C -3.0939 -8.4174 21.6165
C -3.2181 -8.6015 21.8825
C -3.4793 -8.8566 22.1683
C -3.6511 -9.0979 22.4972
C -3.8405 -9.3552 22.9480
C -3.7563 -9.4763 23.2112
C -3.7574 -9.7855 23.4398
C -3.7325 -9.9014 23.7644
C -3.6014 -10.0876 24.0297
C -3.6024 -10.1857 24.3929
C -3.7496 -10.3506 24.7835
C -3.7699 -10.2864 25.2177
C -3.9922 -10.3901 25.6067
C -3.9720 -10.4868 25.9261
C -4.2502 -10.5874 26.2795
C -4.2549 -10.6753 26.5022
C -4.3116 -11.0031 26.7354
C -4.3330 -11.2583 27.1428
C -4.5047 -11.4987 27.5829
C -4.6281 -11.7992 27.8285
C -4.6761 -12.0476 28.0413
C -4.7987 -12.2857 28.3351
C -4.7159 -12.6011 28.6266
C -4.5689 -12.7254 28.8035
C -4.4882 -12.9138 28.8119
C -4.4148 -13.3727 28.7713
C -4.4575 -13.7541 28.8360
C -4.4326 -14.0370 28.8476
C -4.3522 -14.4938 29.0561
C -4.1669 -14.7255 29.2986
C -4.0387 -14.9615 29.4429
100
Atoms. Timestep: 10
C 0.0000 0.0000 0.0000
C -0.1787 -0.1169 0.4897
C -0.3416 -0.1376 0.9798
C -0.3647 -0.2606 1.4027
C -0.4505 -0.1677 1.8045
C -0.3379 -0.2235 1.9991
C -0.3495 -0.3745 2.3497
C -0.3667 -0.4237 2.7515
C -0.2288 -0.4239 3.2719
C -0.4402 -0.4953 3.7462
C -0.6340 -0.4057 4.0047
C -0.7769 -0.3012 4.5103
C -0.7497 -0.2726 4.8828
C -0.8261 -0.3888 5.2653
C -0.7463 -0.5293 5.7045
C -0.8771 -0.6897 6.0797
C -1.0363 -0.7029 6.3129
C -1.0412 -0.8250 6.6123
C -1.3319 -0.8528 6.8862
C -1.6122 -1.0637 7.1946
C -1.6735 -0.9785 7.5432
C -1.8635 -0.9745 7.9682
C -1.9845 -1.1067 8.3757
C -2.1542 -1.3079 8.5410
C -2.0746 -1.4338 8.6276
C -2.0968 -1.6521 9.0195
C -2.2463 -1.7309 9.1513
C -2.3348 -1.7958 9.2494
C -2.4119 -1.8122 9.4515
C -2.7177 -1.8353 9.8752
C -2.6534 -1.8478 10.2692
C -2.7905 -2.1504 10.5924
C -2.6195 -2.2734 10.7905
C -2.6508 -2.5150 11.1529
C -2.6290 -2.7440 11.3316
C -2.5127 -2.9646 11.8166
C -2.5493 -3.2940 12.1414
C -2.6221 -3.6103 12.5949
C -2.7098 -3.7927 12.7169
C -2.5495 -4.0220 12.9685
C -2.4885 -4.1638 13.3379
C -2.4491 -4.2069 13.5496
C -2.2854 -4.3602 13.9132
C -2.3456 -4.4204 14.1636
C -2.2970 -4.4590 14.4027
C -2.3057 -4.5735 14.7250
C -2.4271 -4.5210 15.3015
C -2.3118 -4.6602 15.6418
C -2.3094 -4.7982 16.0021
C -2.1985 -4.9612 16.3821
C -2.1017 -5.0875 16.5789
C -2.0690 -5.1145 16.6843
C -1.9261 -5.3320 16.7406
C -2.0124 -5.5466 16.9619
C -2.1118 -5.7642 17.2319
C -1.9736 -5.8270 17.6216
C -2.0981 -6.1574 17.9847
C -2.1611 -6.1133 18.3037
C -2.3047 -6.3425 18.5235
C -2.4107 -6.4039 18.7904
C -2.4562 -6.4402 18.9475
C -2.5986 -6.3924 19.3887
C -2.5194 -6.4021 19.7151
C -2.5954 -6.4365 19.8521
C -2.4437 -6.6300 20.3255
C -2.6082 -6.8571 20.6019
C -2.7347 -7.1501 20.8144
C -2.8359 -7.4154 21.0989
C -2.8411 -7.5971 21.4870
C -2.8560 -7.8366 21.9797
C -2.9461 -7.9595 22.2910
C -3.1727 -8.1343 22.6556
C -3.3031 -8.2978 23.0458
C -3.4310 -8.4544 23.5600
C -3.3274 -8.5363 23.8313
C -3.3297 -8.7967 24.1142
C -3.3002 -8.8695 24.4508
C -3.1777 -9.0336 24.7342
C -3.1661 -9.0821 25.1071
C -3.2868 -9.2134 25.5189
C -3.2781 -9.1233 25.9489
C -3.4888 -9.1762 26.3543
C -3.4456 -9.2621 26.6744
C -3.7035 -9.3206 27.0519
C -3.7008 -9.4045 27.2762
C -3.7663 -9.7329 27.5061
C -3.7676 -10.0001 27.9063
C -3.8995 -10.1876 28.3842
C -4.0255 -10.4618 28.6577
C -4.0743 -10.6921 28.8898
C -4.2023 -10.8996 29.2038
C -4.1291 -11.1997 29.5134
C -3.9873 -11.3210 29.6965
C -3.9214 -11.5115 29.7344
C -3.8989 -11.9747 29.7851
C -3.9586 -12.3345 29.9209
C -3.9520 -12.6127 29.9790
C -3.8766 -13.0339 30.2538
C -3.6851 -13.2332 30.5192
C -3.5341 -13.4437 30.6799
100
Atoms. Timestep: 11
C 0.0000 0.0000 0.0000
C -0.1787 -0.1169 0.4897
C -0.3416 -0.1376 0.9798
C -0.3647 -0.2606 1.4027
C -0.4505 -0.1677 1.8045
C -0.3379 -0.2235 1.9991
C -0.3495 -0.3745 2.3497
C -0.3667 -0.4237 2.7515
C -0.2288 -0.4239 3.2719
C -0.4402 -0.4953 3.7462
C -0.6340 -0.4057 4.0047
C -0.7769 -0.3012 4.5103
C -0.7497 -0.2726 4.8828
C -0.8261 -0.3888 5.2653
C -0.7463 -0.5293 5.7045
C -0.8771 -0.6897 6.0797
C -1.0363 -0.7029 6.3129
C -1.0412 -0.8250 6.6123
C -1.3319 -0.8528 6.8862
C -1.6122 -1.0637 7.1946
C -1.6735 -0.9785 7.5432
C -1.8635 -0.9745 7.9682
C -1.9845 -1.1067 8.3757
C -2.1542 -1.3079 8.5410
C -2.0746 -1.4338 8.6276
C -2.0968 -1.6521 9.0195
C -2.2463 -1.7309 9.1513
C -2.3348 -1.7958 9.2494
C -2.4119 -1.8122 9.4515
C -2.7177 -1.8353 9.8752
C -2.6534 -1.8478 10.2692
C -2.7905 -2.1504 10.5924
C -2.6195 -2.2734 10.7905
C -2.6508 -2.5150 11.1529
C -2.6290 -2.7440 11.3316
C -2.5127 -2.9646 11.8166
C -2.5493 -3.2940 12.1414
C -2.6221 -3.6103 12.5949
C -2.7098 -3.7927 12.7169
C -2.5495 -4.0220 12.9685
C -2.4885 -4.1638 13.3379
C -2.4491 -4.2069 13.5496
C -2.2854 -4.3602 13.9132
C -2.3456 -4.4204 14.1636
C -2.2970 -4.4590 14.4027
C -2.3057 -4.5735 14.7250
C -2.4271 -4.5210 15.3015
C -2.3118 -4.6602 15.6418
C -2.3094 -4.7982 16.0021