99
Atoms. Timestep: 0
C 0.0000 0.0000 0.0000
C 0.0000 0.0000 0.3400
C 0.0000 0.0000 0.6800
C 0.0000 0.0000 1.0200
C 0.0000 0.0000 1.3600
C 0.0000 0.0000 1.7000
C 0.0000 0.0000 2.0400
C 0.0000 0.0000 2.3800
C 0.0000 0.0000 2.7200
C 0.0000 0.0000 3.0600
C 0.0000 0.0000 3.4000
C 0.0000 0.0000 3.7400
C 0.0000 0.0000 4.0800
C 0.0000 0.0000 4.4200
C 0.0000 0.0000 4.7600
C 0.0000 0.0000 5.1000
C 0.0000 0.0000 5.4400
C 0.0000 0.0000 5.7800
C 0.0000 0.0000 6.1200
C 0.0000 0.0000 6.4600
C 0.0000 0.0000 6.8000
C 0.0000 0.0000 7.1400
C 0.0000 0.0000 7.4800
C 0.0000 0.0000 7.8200
C 0.0000 0.0000 8.1600
C 0.0000 0.0000 8.5000
C 0.0000 0.0000 8.8400
C 0.0000 0.0000 9.1800
C 0.0000 0.0000 9.5200
C 0.0000 0.0000 9.8600
C 0.0000 0.0000 10.2000
C 0.0000 0.0000 10.5400
C 0.0000 0.0000 10.8800
C 0.0000 0.0000 11.2200
C 0.0000 0.0000 11.5600
C 0.0000 0.0000 11.9000
C 0.0000 0.0000 12.2400
C 0.0000 0.0000 12.5800
C 0.0000 0.0000 12.9200
C 0.0000 0.0000 13.2600
C 0.0000 0.0000 13.6000
C 0.0000 0.0000 13.9400
C 0.0000 0.0000 14.2800
C 0.0000 0.0000 14.6200
C 0.0000 0.0000 14.9600
C 0.0000 0.0000 15.3000
C 0.0000 0.0000 15.6400
C 0.0000 0.0000 15.9800
C 0.0000 0.0000 16.3200
C 0.0000 0.0000 16.6600
C 0.0000 0.0000 17.0000
C 0.0000 0.0000 17.3400
C 0.0000 0.0000 17.6800
C 0.0000 0.0000 18.0200
C 0.0000 0.0000 18.3600
C 0.0000 0.0000 18.7000
C 0.0000 0.0000 19.0400
C 0.0000 0.0000 19.3800
C 0.0000 0.0000 19.7200
C 0.0000 0.0000 20.0600
C 0.0000 0.0000 20.4000
C 0.0000 0.0000 20.7400
C 0.0000 0.0000 21.0800
C 0.0000 0.0000 21.4200
C 0.0000 0.0000 21.7600
C 0.0000 0.0000 22.1000
C 0.0000 0.0000 22.4400
C 0.0000 0.0000 22.7800
C 0.0000 0.0000 23.1200
C 0.0000 0.0000 23.4600
C 0.0000 0.0000 23.8000
C 0.0000 0.0000 24.1400
C 0.0000 0.0000 24.4800
C 0.0000 0.0000 24.8200
C 0.0000 0.0000 25.1600
C 0.0000 0.0000 25.5000
C 0.0000 0.0000 25.8400
C 0.0000 0.0000 26.1800
C 0.0000 0.0000 26.5200
C 0.0000 0.0000 26.8600
C 0.0000 0.0000 27.2000
C 0.0000 0.0000 27.5400
C 0.0000 0.0000 27.8800
C 0.0000 0.0000 28.2200
C 0.0000 0.0000 28.5600
C 0.0000 0.0000 28.9000
C 0.0000 0.0000 29.2400
C 0.0000 0.0000 29.5800
C 0.0000 0.0000 29.9200
C 0.0000 0.0000 30.2600
C 0.0000 0.0000 30.6000
C 0.0000 0.0000 30.9400
C 0.0000 0.0000 31.2800
C 0.0000 0.0000 31.6200
C 0.0000 0.0000 31.9600
C 0.0000 0.0000 32.3000
C 0.0000 0.0000 32.6400
C 0.0000 0.0000 32.9800
C 0.0000 0.0000 33.3200
99
Atoms. Timestep: 1
C -0.1435 -0.2157 0.0064
C -0.1389 -0.2125 0.3463
C -0.1297 -0.1983 0.6859
C -0.1204 -0.1842 1.0255
C -0.1112 -0.1700 1.3651
C -0.1019 -0.1558 1.7046
C -0.0926 -0.1417 2.0442
C -0.0834 -0.1275 2.3838
C -0.0741 -0.1133 2.7234
C -0.0648 -0.0992 3.0630
C -0.0556 -0.0850 3.4025
C -0.0463 -0.0708 3.7421
C -0.0371 -0.0567 4.0817
C -0.0278 -0.0425 4.4213
C -0.0185 -0.0283 4.7608
C -0.0093 -0.0142 5.1004
C 0.0000 0.0000 5.4400
C 0.0000 0.0000 5.7800
C 0.0000 0.0000 6.1200
C 0.0000 0.0000 6.4600
C 0.0000 0.0000 6.8000
C 0.0000 0.0000 7.1400
C 0.0000 0.0000 7.4800
C 0.0000 0.0000 7.8200
C 0.0000 0.0000 8.1600
C 0.0000 0.0000 8.5000
C 0.0000 0.0000 8.8400
C 0.0000 0.0000 9.1800
C 0.0000 0.0000 9.5200
C 0.0000 0.0000 9.8600
C 0.0000 0.0000 10.2000
C 0.0000 0.0000 10.5400
C 0.0000 0.0000 10.8800
C 0.0000 0.0000 11.2200
C 0.0000 0.0000 11.5600
C 0.0000 0.0000 11.9000
C 0.0000 0.0000 12.2400
C 0.0000 0.0000 12.5800
C 0.0000 0.0000 12.9200
C 0.0000 0.0000 13.2600
C 0.0000 0.0000 13.6000
C 0.0000 0.0000 13.9400
C 0.0000 0.0000 14.2800
C 0.0000 0.0000 14.6200
C 0.0000 0.0000 14.9600
C 0.0000 0.0000 15.3000
C 0.0000 0.0000 15.6400
C 0.0000 0.0000 15.9800
C 0.0000 0.0000 16.3200
C 0.0000 0.0000 16.6600
C 0.0000 0.0000 17.0000
C 0.0000 0.0000 17.3400
C 0.0000 0.0000 17.6800
C 0.0000 0.0000 18.0200
C 0.0000 0.0000 18.3600
C 0.0000 0.0000 18.7000
C 0.0000 0.0000 19.0400
C 0.0000 0.0000 19.3800
C 0.0000 0.0000 19.7200
C 0.0000 0.0000 20.0600
C 0.0000 0.0000 20.4000
C 0.0000 0.0000 20.7400
C 0.0000 0.0000 21.0800
C 0.0000 0.0000 21.4200
C 0.0000 0.0000 21.7600
C 0.0000 0.0000 22.1000
C 0.0000 0.0000 22.4400
C 0.0000 0.0000 22.7800
C 0.0000 0.0000 23.1200
C 0.0000 0.0000 23.4600
C 0.0000 0.0000 23.8000
C 0.0000 0.0000 24.1400
C 0.0000 0.0000 24.4800
C 0.0000 0.0000 24.8200
C 0.0000 0.0000 25.1600
C 0.0000 0.0000 25.5000
C 0.0000 0.0000 25.8400
C 0.0000 0.0000 26.1800
C 0.0000 0.0000 26.5200
C 0.0000 0.0000 26.8600
C 0.0000 0.0000 27.2000
C 0.0000 0.0000 27.5400
C 0.0000 0.0000 27.8800
C 0.0000 0.0000 28.2200
C 0.0000 0.0000 28.5600
C 0.0000 0.0000 28.9000
C 0.0000 0.0000 29.2400
C 0.0000 0.0000 29.5800
C 0.0000 0.0000 29.9200
C 0.0000 0.0000 30.2600
C 0.0000 0.0000 30.6000
C 0.0000 0.0000 30.9400
C 0.0000 0.0000 31.2800
C 0.0000 0.0000 31.6200
C 0.0000 0.0000 31.9600
C 0.0000 0.0000 32.3000
C 0.0000 0.0000 32.6400
C 0.0000 0.0000 32.9800
C 0.0000 0.0000 33.3200
99
Atoms. Timestep: 2
C -1.3967 3.8593 0.5864
C -1.3759 3.7657 0.9126
C -1.3532 3.6782 1.2404
C -1.3304 3.5932 1.5688
C -1.3051 3.5095 1.8974
C -1.3025 3.4078 2.2218
C -1.2872 3.2948 2.5421
C -1.2731 3.1885 2.8648
C -1.2685 3.0765 3.1857
C -1.2631 2.9585 3.5046
C -1.2577 2.8405 3.8234
C -1.2582 2.7341 4.1463
C -1.2450 2.6252 4.4681
C -1.2052 2.5286 4.7917
C -1.1654 2.4320 5.1152
C -1.0995 2.3452 5.4373
C -1.0336 2.2585 5.7594
C -0.9862 2.1570 6.0804
C -0.9485 2.0584 6.4036
C -0.9011 1.9636 6.7267
C -0.8664 1.8637 7.0498
C -0.8378 1.7839 7.3790
C -0.8252 1.7140 7.7115
C -0.7990 1.6401 8.0424
C -0.7657 1.5588 8.3708
C -0.7191 1.4777 8.6977
C -0.6716 1.3976 9.0247
C -0.6282 1.3202 9.3529
C -0.5792 1.2379 9.6792
C -0.5281 1.1555 10.0050
C -0.4984 1.0630 10.3309
C -0.4759 0.9700 10.6571
C -0.4535 0.8909 10.9870
C -0.4311 0.8118 11.3169
C -0.3997 0.7290 11.6452
C -0.3834 0.6597 11.9777
C -0.3594 0.5962 12.3108
C -0.3354 0.5327 12.6440
C -0.3165 0.4676 12.9772
C -0.2884 0.3889 13.3067
C -0.2602 0.3102 13.6363
C -0.2255 0.2444 13.9680
C -0.1908 0.1785 14.2998
C -0.1496 0.1269 14.6333
C -0.1046 0.0754 14.9664
C -0.0776 0.0609 15.3050
C -0.0512 0.0556 15.6439
C -0.0264 0.0287 15.9819
C -0.0017 0.0023 16.3200
C 0.0000 0.0000 16.6600
C 0.0000 0.0000 17.0000
C 0.0000 0.0000 17.3400
C 0.0000 0.0000 17.6800
C 0.0000 0.0000 18.0200
C 0.0000 0.0000 18.3600
C 0.0000 0.0000 18.7000
C 0.0000 0.0000 19.0400
C 0.0000 0.0000 19.3800
C 0.0000 0.0000 19.7200
C 0.0000 0.0000 20.0600
C 0.0000 0.0000 20.4000
C 0.0000 0.0000 20.7400
C 0.0000 0.0000 21.0800
C 0.0000 0.0000 21.4200
C 0.0000 0.0000 21.7600
C 0.0000 0.0000 22.1000
C 0.0000 0.0000 22.4400
C 0.0000 0.0000 22.7800
C 0.0000 0.0000 23.1200
C 0.0000 0.0000 23.4600
C 0.0000 0.0000 23.8000
C 0.0000 0.0000 24.1400
C 0.0000 0.0000 24.4800
C 0.0000 0.0000 24.8200
C 0.0000 0.0000 25.1600
C 0.0000 0.0000 25.5000
C 0.0000 0.0000 25.8400
C 0.0000 0.0000 26.1800
C 0.0000 0.0000 26.5200
C 0.0000 0.0000 26.8600
C 0.0000 0.0000 27.2000
C 0.0000 0.0000 27.5400
C 0.0000 0.0000 27.8800
C 0.0000 0.0000 28.2200
C 0.0000 0.0000 28.5600
C 0.0000 0.0000 28.9000
C 0.0000 0.0000 29.2400
C 0.0000 0.0000 29.5800
C 0.0000 0.0000 29.9200
C 0.0000 0.0000 30.2600
C 0.0000 0.0000 30.6000
C 0.0000 0.0000 30.9400
C 0.0000 0.0000 31.2800
C 0.0000 0.0000 31.6200
C 0.0000 0.0000 31.9600
C 0.0000 0.0000 32.3000
C 0.0000 0.0000 32.6400
C 0.0000 0.0000 32.9800
C 0.0000 0.0000 33.3200
99
Atoms. Timestep: 3
C 1.9571 1.3725 0.4120
C 1.8539 1.3984 0.7349
C 1.7599 1.4323 1.0599
C 1.6753 1.4434 1.3890
C 1.5922 1.4438 1.7187
C 1.4881 1.4375 2.0423
C 1.3975 1.4207 2.3696
C 1.3049 1.4108 2.6966
C 1.1900 1.3931 3.0161
C 1.0854 1.3582 3.3377
C 0.9751 1.3241 3.6575
C 0.8714 1.2922 3.9797
C 0.7822 1.2667 4.3068
C 0.7245 1.2525 4.6416
C 0.6663 1.2424 4.9764
C 0.6327 1.2450 5.3147
C 0.5992 1.2476 5.6531
C 0.5492 1.2333 5.9891
C 0.4893 1.2210 6.3235
C 0.4506 1.2237 6.6613
C 0.4025 1.2138 6.9977
C 0.3466 1.2244 7.3329
C 0.2773 1.2405 7.6654
C 0.2216 1.2533 8.0006
C 0.1731 1.2580 8.3371
C 0.1608 1.2518 8.6768
C 0.1307 1.2383 9.0152
C 0.0940 1.2216 9.3528
C 0.0629 1.1998 9.6907
C 0.0340 1.1778 10.0287
C -0.0043 1.1437 10.3648
C -0.0413 1.0660 10.6938
C -0.0778 1.0024 11.0258
C -0.1144 0.9388 11.3577
C -0.1394 0.8719 11.6902
C -0.1711 0.8062 12.0222
C -0.1952 0.7464 12.3561
C -0.2103 0.6734 12.6878
C -0.2450 0.5982 13.0176
C -0.2541 0.4856 13.3382
C -0.2638 0.3788 13.6609
C -0.2668 0.2844 13.9875
C -0.2597 0.1862 14.3129
C -0.2277 0.1170 14.6443
C -0.1920 0.0467 14.9750
C -0.1418 0.0341 15.3110
C -0.1010 0.0276 15.6485
C -0.0464 0.0022 15.9832
C -0.0017 -0.0069 16.3201
C 0.0000 0.0000 16.6600
C 0.0000 0.0000 17.0000
C 0.0000 0.0000 17.3400
C 0.0000 0.0000 17.6800
C 0.0000 0.0000 18.0200
C 0.0000 0.0000 18.3600
C 0.0000 0.0000 18.7000
C 0.0000 0.0000 19.0400
C 0.0000 0.0000 19.3800
C 0.0000 0.0000 19.7200
C 0.0000 0.0000 20.0600
C 0.0000 0.0000 20.4000
C 0.0000 0.0000 20.7400
C 0.0000 0.0000 21.0800
C 0.0000 0.0000 21.4200
C 0.0000 0.0000 21.7600
C 0.0000 0.0000 22.1000
C 0.0000 0.0000 22.4400
C 0.0000 0.0000 22.7800
C 0.0000 0.0000 23.1200
C 0.0000 0.0000 23.4600
C 0.0000 0.0000 23.8000
C 0.0000 0.0000 24.1400
C 0.0000 0.0000 24.4800
C 0.0000 0.0000 24.8200
C 0.0000 0.0000 25.1600
C 0.0000 0.0000 25.5000
C 0.0000 0.0000 25.8400
C 0.0000 0.0000 26.1800
C 0.0000 0.0000 26.5200
C 0.0000 0.0000 26.8600
C 0.0000 0.0000 27.2000
C 0.0000 0.0000 27.5400
C 0.0000 0.0000 27.8800
C 0.0000 0.0000 28.2200
C 0.0000 0.0000 28.5600
C 0.0000 0.0000 28.9000
C 0.0000 0.0000 29.2400
C 0.0000 0.0000 29.5800
C 0.0000 0.0000 29.9200
C 0.0000 0.0000 30.2600
C 0.0000 0.0000 30.6000
C 0.0000 0.0000 30.9400
C 0.0000 0.0000 31.2800
C 0.0000 0.0000 31.6200
C 0.0000 0.0000 31.9600
C 0.0000 0.0000 32.3000
C 0.0000 0.0000 32.6400
C 0.0000 0.0000 32.9800
C 0.0000 0.0000 33.3200
99
Atoms. Timestep: 4
C 2.8805 2.8295 0.8040
C 2.7540 2.7648 1.1129
C 2.6267 2.7117 1.4237
C 2.5101 2.6352 1.7338
C 2.3974 2.5487 2.0426
C 2.2721 2.4782 2.3508
C 2.1816 2.3747 2.6617
C 2.0898 2.2754 2.9737
C 1.9798 2.1656 3.2761
C 1.8911 2.0512 3.5837
C 1.7967 1.9362 3.8895
C 1.7020 1.8262 4.1969
C 1.6187 1.7259 4.5109
C 1.5455 1.6372 4.8309
C 1.4771 1.5413 5.1498
C 1.4205 1.4670 5.4767
C 1.3639 1.3928 5.8037
C 1.2941 1.2985 6.1228
C 1.2070 1.1999 6.4363
C 1.1144 1.1347 6.7569
C 1.0169 1.0632 7.0747
C 0.9144 1.0268 7.3968
C 0.8188 1.0124 7.7228
C 0.7315 1.0097 8.0513
C 0.6523 1.0109 8.3820
C 0.6081 1.0169 8.7191
C 0.5473 1.0126 9.0536
C 0.4807 1.0040 9.3868
C 0.4204 0.9913 9.7212
C 0.3561 0.9800 10.0549
C 0.2841 0.9556 10.3863
C 0.2192 0.8878 10.7131
C 0.1614 0.8308 11.0433
C 0.1120 0.7823 11.3761
C 0.0591 0.7218 11.7065
C 0.0016 0.6568 12.0352
C -0.0488 0.5980 12.3663
C -0.0910 0.5356 12.6979
C -0.1556 0.4592 13.0228
C -0.1987 0.3405 13.3384
C -0.2356 0.2433 13.6622
C -0.2672 0.1596 13.9902
C -0.2884 0.0731 14.3183
C -0.2533 0.0041 14.6494
C -0.2186 -0.0626 14.9810
C -0.1506 -0.0582 15.3141
C -0.0922 -0.0484 15.6489
C -0.0378 -0.0453 15.9845
C 0.0064 -0.0260 16.3211
C 0.0000 0.0000 16.6600
C 0.0000 0.0000 17.0000
C 0.0000 0.0000 17.3400
C 0.0000 0.0000 17.6800
C 0.0000 0.0000 18.0200
C 0.0000 0.0000 18.3600
C 0.0000 0.0000 18.7000
C 0.0000 0.0000 19.0400
C 0.0000 0.0000 19.3800
C 0.0000 0.0000 19.7200
C 0.0000 0.0000 20.0600
C 0.0000 0.0000 20.4000
C 0.0000 0.0000 20.7400
C 0.0000 0.0000 21.0800
C 0.0000 0.0000 21.4200
C 0.0000 0.0000 21.7600
C 0.0000 0.0000 22.1000
C 0.0000 0.0000 22.4400
C 0.0000 0.0000 22.7800
C 0.0000 0.0000 23.1200
C 0.0000 0.0000 23.4600
C 0.0000 0.0000 23.8000
C 0.0000 0.0000 24.1400
C 0.0000 0.0000 24.4800
C 0.0000 0.0000 24.8200
C 0.0000 0.0000 25.1600
C 0.0000 0.0000 25.5000
C 0.0000 0.0000 25.8400
C 0.0000 0.0000 26.1800
C 0.0000 0.0000 26.5200
C 0.0000 0.0000 26.8600
C 0.0000 0.0000 27.2000
C 0.0000 0.0000 27.5400
C 0.0000 0.0000 27.8800
C 0.0000 0.0000 28.2200
C 0.0000 0.0000 28.5600
C 0.0000 0.0000 28.9000
C 0.0000 0.0000 29.2400
C 0.0000 0.0000 29.5800
C 0.0000 0.0000 29.9200
C 0.0000 0.0000 30.2600
C 0.0000 0.0000 30.6000
C 0.0000 0.0000 30.9400
C 0.0000 0.0000 31.2800
C 0.0000 0.0000 31.6200
C 0.0000 0.0000 31.9600
C 0.0000 0.0000 32.3000
C 0.0000 0.0000 32.6400
C 0.0000 0.0000 32.9800
C 0.0000 0.0000 33.3200
99
Atoms. Timestep: 5
C 5.0858 4.1003 2.2133
C 4.8251 3.9866 2.3996
C 4.5586 3.8881 2.5863
C 4.2977 3.7741 2.7721
C 4.0478 3.6703 2.9780
C 3.7959 3.5649 3.1806
C 3.5722 3.4359 3.4018
C 3.3500 3.3180 3.6305
C 3.1444 3.1919 3.8702
C 2.9633 3.0565 4.1241
C 2.7881 2.9287 4.3859
C 2.6083 2.8195 4.6531
C 2.4374 2.7203 4.9298
C 2.2826 2.6339 5.2199
C 2.1616 2.5135 5.5139
C 2.0384 2.4070 5.8123
C 1.9177 2.3039 6.1131
C 1.7899 2.1795 6.4025
C 1.6620 2.0379 6.6839
C 1.5471 1.9167 6.9801
C 1.4286 1.7890 7.2721
C 1.2994 1.6945 7.5720
C 1.1688 1.6003 7.8715
C 1.0611 1.5285 8.1859
C 0.9618 1.4589 8.5035
C 0.8971 1.3905 8.8302
C 0.8158 1.3136 9.1512
C 0.7284 1.2332 9.4698
C 0.6457 1.1660 9.7927
C 0.5609 1.1028 10.1158
C 0.4631 1.0305 10.4333
C 0.3846 0.9237 10.7465
C 0.2990 0.8423 11.0653
C 0.2264 0.7700 11.3895
C 0.1457 0.7066 11.7136
C 0.0549 0.6632 12.0384
C -0.0051 0.6208 12.3703
C -0.0603 0.5672 12.7015
C -0.1362 0.4975 13.0255
C -0.1842 0.3968 13.3467
C -0.2129 0.2886 13.6678
C -0.2514 0.2065 13.9954
C -0.2783 0.1257 14.3246
C -0.2382 0.0387 14.6508
C -0.2071 -0.0382 14.9805
C -0.1386 -0.0496 15.3134
C -0.0796 -0.0551 15.6482
C -0.0293 -0.0495 15.9844
C 0.0107 -0.0278 16.3213
C 0.0000 0.0000 16.6600
C 0.0000 0.0000 17.0000
C 0.0000 0.0000 17.3400
C 0.0000 0.0000 17.6800
C 0.0000 0.0000 18.0200
C 0.0000 0.0000 18.3600
C 0.0000 0.0000 18.7000
C 0.0000 0.0000 19.0400
C 0.0000 0.0000 19.3800
C 0.0000 0.0000 19.7200
C 0.0000 0.0000 20.0600
C 0.0000 0.0000 20.4000
C 0.0000 0.0000 20.7400
C 0.0000 0.0000 21.0800
C 0.0000 0.0000 21.4200
C 0.0000 0.0000 21.7600
C 0.0000 0.0000 22.1000
C 0.0000 0.0000 22.4400
C 0.0000 0.0000 22.7800
C 0.0000 0.0000 23.1200
C 0.0000 0.0000 23.4600
C 0.0000 0.0000 23.8000
C 0.0000 0.0000 24.1400
C 0.0000 0.0000 24.4800
C 0.0000 0.0000 24.8200
C 0.0000 0.0000 25.1600
C 0.0000 0.0000 25.5000
C 0.0000 0.0000 25.8400
C 0.0000 0.0000 26.1800
C 0.0000 0.0000 26.5200
C 0.0000 0.0000 26.8600
C 0.0000 0.0000 27.2000
C 0.0000 0.0000 27.5400
C 0.0000 0.0000 27.8800
C 0.0000 0.0000 28.2200
C 0.0000 0.0000 28.5600
C 0.0000 0.0000 28.9000
C 0.0000 0.0000 29.2400
C 0.0000 0.0000 29.5800
C 0.0000 0.0000 29.9200
C 0.0000 0.0000 30.2600
C 0.0000 0.0000 30.6000
C 0.0000 0.0000 30.9400
C 0.0000 0.0000 31.2800
C 0.0000 0.0000 31.6200
C 0.0000 0.0000 31.9600
C 0.0000 0.0000 32.3000
C 0.0000 0.0000 32.6400
C 0.0000 0.0000 32.9800
C 0.0000 0.0000 33.3200
99
Atoms. Timestep: 6
C 9.1560 1.5866 3.8255
C 8.8499 1.5400 3.9661
C 8.5528 1.4824 4.1211
C 8.2669 1.4138 4.2917
C 7.9916 1.3555 4.4826
C 7.7148 1.2937 4.6702
C 7.4624 1.2084 4.8813
C 7.1953 1.1361 5.0789
C 6.9376 1.0666 5.2895
C 6.6894 0.9973 5.5113
C 6.4333 0.9337 5.7257
C 6.1781 0.8928 5.9466
C 5.9308 0.8619 6.1779
C 5.6987 0.8352 6.4249
C 5.4794 0.7722 6.6770
C 5.2661 0.7199 6.9365
C 5.0340 0.6987 7.1841
C 4.7911 0.6592 7.4186
C 4.5443 0.6028 7.6456
C 4.3128 0.5417 7.8871
C 4.0775 0.4751 8.1233
C 3.8398 0.4439 8.3643
C 3.6095 0.4193 8.6132
C 3.3942 0.4118 8.8763
C 3.1854 0.4062 9.1446
C 3.0141 0.3949 9.4380
C 2.8268 0.3780 9.7213
C 2.6339 0.3585 10.0006
C 2.4330 0.3534 10.2749
C 2.2347 0.3462 10.5509
C 2.0253 0.3285 10.8183
C 1.8254 0.2874 11.0902
C 1.6345 0.2705 11.3710
C 1.4560 0.2613 11.6602
C 1.2704 0.2564 11.9450
C 1.0791 0.2726 12.2257
C 0.9153 0.2687 12.5236
C 0.7723 0.2549 12.8318
C 0.6059 0.2232 13.1265
C 0.4433 0.1568 13.4177
C 0.3077 0.0590 13.7137
C 0.1603 -0.0187 14.0101
C 0.0360 -0.0977 14.3165
C -0.0143 -0.1598 14.6470
C -0.0556 -0.2160 14.9798
C -0.0636 -0.2048 15.3195
C -0.0351 -0.1570 15.6549
C -0.0027 -0.1003 15.9886
C 0.0167 -0.0428 16.3231
C 0.0000 0.0000 16.6600
C 0.0000 0.0000 17.0000
C 0.0000 0.0000 17.3400
C 0.0000 0.0000 17.6800
C 0.0000 0.0000 18.0200
C 0.0000 0.0000 18.3600
C 0.0000 0.0000 18.7000
C 0.0000 0.0000 19.0400
C 0.0000 0.0000 19.3800
C 0.0000 0.0000 19.7200
C 0.0000 0.0000 20.0600
C 0.0000 0.0000 20.4000
C 0.0000 0.0000 20.7400
C 0.0000 0.0000 21.0800
C 0.0000 0.0000 21.4200
C 0.0000 0.0000 21.7600
C 0.0000 0.0000 22.1000
C 0.0000 0.0000 22.4400
C 0.0000 0.0000 22.7800
C 0.0000 0.0000 23.1200
C 0.0000 0.0000 23.4600
C 0.0000 0.0000 23.8000
C 0.0000 0.0000 24.1400
C 0.0000 0.0000 24.4800
C 0.0000 0.0000 24.8200
C 0.0000 0.0000 25.1600
C 0.0000 0.0000 25.5000
C 0.0000 0.0000 25.8400
C 0.0000 0.0000 26.1800
C 0.0000 0.0000 26.5200
C 0.0000 0.0000 26.8600
C 0.0000 0.0000 27.2000
C 0.0000 0.0000 27.5400
C 0.0000 0.0000 27.8800
C 0.0000 0.0000 28.2200
C 0.0000 0.0000 28.5600
C 0.0000 0.0000 28.9000
C 0.0000 0.0000 29.2400
C 0.0000 0.0000 29.5800
C 0.0000 0.0000 29.9200
C 0.0000 0.0000 30.2600
C 0.0000 0.0000 30.6000
C 0.0000 0.0000 30.9400
C 0.0000 0.0000 31.2800
C 0.0000 0.0000 31.6200
C 0.0000 0.0000 31.9600
C 0.0000 0.0000 32.3000
C 0.0000 0.0000 32.6400
C 0.0000 0.0000 32.9800
C 0.0000 0.0000 33.3200
99
Atoms. Timestep: 7
C 10.8394 -0.9591 5.1600
C 10.5298 -0.8670 5.2664
C 10.2213 -0.8000 5.3926
C 9.9175 -0.7464 5.5356
C 9.6236 -0.6783 5.6922
C 9.3182 -0.6173 5.8287
C 9.0234 -0.5693 5.9912
C 8.7228 -0.5055 6.1367
C 8.4174 -0.4432 6.2726
C 8.1142 -0.4021 6.4207
C 7.8129 -0.3695 6.5749
C 7.5508 -0.2773 6.7710
C 7.2985 -0.1854 6.9794
C 7.0531 -0.0771 7.1884
C 6.7999 -0.0349 7.4113
C 6.5516 -0.0045 7.6416
C 6.3115 0.0549 7.8749
C 6.0548 0.0954 8.0941
C 5.7965 0.1032 8.3151
C 5.5518 0.1033 8.5511
C 5.3004 0.0691 8.7775
C 5.0530 0.0706 9.0107
C 4.8096 0.0746 9.2480
C 4.5803 0.0884 9.4987
C 4.3356 0.0972 9.7346
C 4.1230 0.0930 9.9999
C 3.8930 0.1007 10.2502
C 3.6546 0.1080 10.4925
C 3.4173 0.1355 10.7345
C 3.1924 0.1622 10.9880
C 2.9555 0.1815 11.2311
C 2.7232 0.1671 11.4789
C 2.5031 0.1425 11.7370
C 2.2953 0.1197 12.0051
C 2.0708 0.1115 12.2603
C 1.8481 0.1158 12.5172
C 1.6335 0.1039 12.7806
C 1.4357 0.0946 13.0570
C 1.2160 0.0698 13.3153
C 0.9953 0.0195 13.5690
C 0.7974 -0.0643 13.8325
C 0.5841 -0.1224 14.0908
C 0.3912 -0.1838 14.3640
C 0.2676 -0.2293 14.6774
C 0.1501 -0.2709 14.9937
C 0.0784 -0.2356 15.3242
C 0.0477 -0.1689 15.6562
C 0.0422 -0.0972 15.9885
C 0.0167 -0.0428 16.3231
C 0.0000 0.0000 16.6600
C 0.0000 0.0000 17.0000
C 0.0000 0.0000 17.3400
C 0.0000 0.0000 17.6800
C 0.0000 0.0000 18.0200
C 0.0000 0.0000 18.3600
C 0.0000 0.0000 18.7000
C 0.0000 0.0000 19.0400
C 0.0000 0.0000 19.3800
C 0.0000 0.0000 19.7200
C 0.0000 0.0000 20.0600
C 0.0000 0.0000 20.4000
C 0.0000 0.0000 20.7400
C 0.0000 0.0000 21.0800
C 0.0000 0.0000 21.4200
C 0.0000 0.0000 21.7600
C 0.0000 0.0000 22.1000
C 0.0000 0.0000 22.4400
C 0.0000 0.0000 22.7800
C 0.0000 0.0000 23.1200
C 0.0000 0.0000 23.4600
C 0.0000 0.0000 23.8000
C 0.0000 0.0000 24.1400
C 0.0000 0.0000 24.4800
C 0.0000 0.0000 24.8200
C 0.0000 0.0000 25.1600
C 0.0000 0.0000 25.5000
C 0.0000 0.0000 25.8400
C 0.0000 0.0000 26.1800
C 0.0000 0.0000 26.5200
C 0.0000 0.0000 26.8600
C 0.0000 0.0000 27.2000
C 0.0000 0.0000 27.5400
C 0.0000 0.0000 27.8800
C 0.0000 0.0000 28.2200
C 0.0000 0.0000 28.5600
C 0.0000 0.0000 28.9000
C 0.0000 0.0000 29.2400
C 0.0000 0.0000 29.5800
C 0.0000 0.0000 29.9200
C 0.0000 0.0000 30.2600
C 0.0000 0.0000 30.6000
C 0.0000 0.0000 30.9400
C 0.0000 0.0000 31.2800
C 0.0000 0.0000 31.6200
C 0.0000 0.0000 31.9600
C 0.0000 0.0000 32.3000
C 0.0000 0.0000 32.6400
C 0.0000 0.0000 32.9800
C 0.0000 0.0000 33.3200
99
Atoms. Timestep: 8
C 8.5035 0.7388 2.8992
C 8.2368 0.7579 3.1093
C 7.9737 0.7623 3.3246
C 7.7183 0.7506 3.5487
C 7.4759 0.7501 3.7870
C 7.2171 0.7473 4.0076
C 6.9870 0.7286 4.2572
C 6.7644 0.7184 4.5140
C 6.5398 0.7355 4.7687
C 6.3205 0.7291 5.0284
C 6.1030 0.7008 5.2882
C 5.9319 0.7189 5.5815
C 5.7652 0.7509 5.8761
C 5.6073 0.7981 6.1735
C 5.4507 0.7811 6.4748
C 5.3048 0.7542 6.7807
C 5.1720 0.7539 7.0937
C 4.9968 0.7385 7.3847
C 4.8149 0.6919 7.6681
C 4.6428 0.6537 7.9589
C 4.4412 0.5942 8.2261
C 4.2303 0.5474 8.4886
C 4.0323 0.4982 8.7606
C 3.8379 0.4669 9.0378
C 3.6192 0.4179 9.2935
C 3.4342 0.3458 9.5695
C 3.2342 0.3050 9.8414
C 3.0358 0.2821 10.1166
C 2.8329 0.2757 10.3893
C 2.6432 0.2638 10.6712
C 2.4512 0.2519 10.9515
C 2.2666 0.2028 11.2328
C 2.0926 0.1469 11.5195
C 1.9383 0.0545 11.8081
C 1.7605 -0.0071 12.0912
C 1.5570 -0.0362 12.3620
C 1.3612 -0.0445 12.6399
C 1.1833 -0.0542 12.9295
C 0.9943 -0.0837 13.2106
C 0.8012 -0.1379 13.4851
C 0.6320 -0.1946 13.7745
C 0.4460 -0.2400 14.0555
C 0.2794 -0.2843 14.3485
C 0.1730 -0.3035 14.6709
C 0.0731 -0.3193 14.9955
C 0.0258 -0.2601 15.3270
C 0.0057 -0.1854 15.6580
C 0.0108 -0.1060 15.9886
C 0.0015 -0.0461 16.3231
C 0.0000 0.0000 16.6600
C 0.0000 0.0000 17.0000
C 0.0000 0.0000 17.3400
C 0.0000 0.0000 17.6800
C 0.0000 0.0000 18.0200
C 0.0000 0.0000 18.3600
C 0.0000 0.0000 18.7000
C 0.0000 0.0000 19.0400
C 0.0000 0.0000 19.3800
C 0.0000 0.0000 19.7200
C 0.0000 0.0000 20.0600
C 0.0000 0.0000 20.4000
C 0.0000 0.0000 20.7400
C 0.0000 0.0000 21.0800
C 0.0000 0.0000 21.4200
C 0.0000 0.0000 21.7600
C 0.0000 0.0000 22.1000
C 0.0000 0.0000 22.4400
C 0.0000 0.0000 22.7800
C 0.0000 0.0000 23.1200
C 0.0000 0.0000 23.4600
C 0.0000 0.0000 23.8000
C 0.0000 0.0000 24.1400
C 0.0000 0.0000 24.4800
C 0.0000 0.0000 24.8200
C 0.0000 0.0000 25.1600
C 0.0000 0.0000 25.5000
C 0.0000 0.0000 25.8400
C 0.0000 0.0000 26.1800
C 0.0000 0.0000 26.5200
C 0.0000 0.0000 26.8600
C 0.0000 0.0000 27.2000
C 0.0000 0.0000 27.5400
C 0.0000 0.0000 27.8800
C 0.0000 0.0000 28.2200
C 0.0000 0.0000 28.5600
C 0.0000 0.0000 28.9000
C 0.0000 0.0000 29.2400
C 0.0000 0.0000 29.5800
C 0.0000 0.0000 29.9200
C 0.0000 0.0000 30.2600
C 0.0000 0.0000 30.6000
C 0.0000 0.0000 30.9400
C 0.0000 0.0000 31.2800
C 0.0000 0.0000 31.6200
C 0.0000 0.0000 31.9600
C 0.0000 0.0000 32.3000
C 0.0000 0.0000 32.6400
C 0.0000 0.0000 32.9800
C 0.0000 0.0000 33.3200
99
Atoms. Timestep: 9
C 5.1308 -2.6473 1.7120
C 4.9112 -2.5467 1.9513
C 4.6923 -2.4409 2.1890
C 4.4955 -2.3439 2.4487
C 4.3174 -2.2313 2.7155
C 4.1192 -2.1253 2.9707
C 3.9291 -2.0027 3.2245
C 3.7473 -1.8782 3.4834
C 3.5856 -1.7394 3.7483
C 3.4182 -1.6446 4.0287
C 3.2544 -1.5700 4.3171
C 3.1514 -1.4308 4.6097
C 3.0523 -1.2785 4.8971
C 2.9616 -1.1116 5.1791
C 2.8698 -1.0058 5.4889
C 2.7956 -0.9224 5.8100
C 2.7317 -0.8211 6.1283
C 2.6526 -0.7113 6.4402
C 2.5647 -0.6324 6.7590
C 2.4744 -0.5494 7.0761
C 2.3499 -0.4957 7.3879
C 2.2163 -0.4305 7.6936
C 2.1066 -0.3600 8.0077
C 2.0006 -0.2713 8.3183
C 1.8667 -0.2062 8.6240
C 1.7682 -0.1563 8.9456
C 1.6555 -0.0772 9.2564
C 1.5341 0.0035 9.5636
C 1.3956 0.0638 9.8682
C 1.2826 0.1107 10.1854
C 1.1724 0.1711 10.5013
C 1.0654 0.1722 10.8240
C 0.9640 0.1516 11.1479
C 0.8847 0.0960 11.4738
C 0.7733 0.0602 11.7931
C 0.6387 0.0553 12.1052
C 0.5362 0.0366 12.4289
C 0.4428 0.0018 12.7539
C 0.3327 -0.0520 13.0711
C 0.2170 -0.1283 13.3815
C 0.1307 -0.2142 13.6990
C 0.0199 -0.2829 14.0130
C -0.0692 -0.3510 14.3340
C -0.1027 -0.3656 14.6720
C -0.1411 -0.3714 15.0098
C -0.1314 -0.2991 15.3419
C -0.1065 -0.2059 15.6679
C -0.0639 -0.1179 15.9935
C -0.0358 -0.0520 16.3259
C 0.0000 0.0000 16.6600
C 0.0000 0.0000 17.0000
C 0.0000 0.0000 17.3400
C 0.0000 0.0000 17.6800
C 0.0000 0.0000 18.0200
C 0.0000 0.0000 18.3600
C 0.0000 0.0000 18.7000
C 0.0000 0.0000 19.0400
C 0.0000 0.0000 19.3800
C 0.0000 0.0000 19.7200
C 0.0000 0.0000 20.0600
C 0.0000 0.0000 20.4000
C 0.0000 0.0000 20.7400
C 0.0000 0.0000 21.0800
C 0.0000 0.0000 21.4200
C 0.0000 0.0000 21.7600
C 0.0000 0.0000 22.1000
C 0.0000 0.0000 22.4400
C 0.0000 0.0000 22.7800
C 0.0000 0.0000 23.1200
C 0.0000 0.0000 23.4600
C 0.0000 0.0000 23.8000
C 0.0000 0.0000 24.1400
C 0.0000 0.0000 24.4800
C 0.0000 0.0000 24.8200
C 0.0000 0.0000 25.1600
C 0.0000 0.0000 25.5000
C 0.0000 0.0000 25.8400
C 0.0000 0.0000 26.1800
C 0.0000 0.0000 26.5200
C 0.0000 0.0000 26.8600
C 0.0000 0.0000 27.2000
C 0.0000 0.0000 27.5400
C 0.0000 0.0000 27.8800
C 0.0000 0.0000 28.2200
C 0.0000 0.0000 28.5600
C 0.0000 0.0000 28.9000
C 0.0000 0.0000 29.2400
C 0.0000 0.0000 29.5800
C 0.0000 0.0000 29.9200
C 0.0000 0.0000 30.2600
C 0.0000 0.0000 30.6000
C 0.0000 0.0000 30.9400
C 0.0000 0.0000 31.2800
C 0.0000 0.0000 31.6200
C 0.0000 0.0000 31.9600
C 0.0000 0.0000 32.3000
C 0.0000 0.0000 32.6400
C 0.0000 0.0000 32.9800
C 0.0000 0.0000 33.3200
99
Atoms. Timestep: 10
C 2.2804 -0.6293 0.7251
C 2.0949 -0.6689 1.0073
C 1.8999 -0.7108 1.2826
C 1.7316 -0.7628 1.5734
C 1.5769 -0.8040 1.8734
C 1.4024 -0.8518 2.1612
C 1.2367 -0.8677 2.4577
C 1.0552 -0.8605 2.7451
C 0.8911 -0.8388 3.0421
C 0.7427 -0.8574 3.3474
C 0.6001 -0.8973 3.6535
C 0.5190 -0.8787 3.9831
C 0.4833 -0.8048 4.3131
C 0.4544 -0.7149 4.6397
C 0.4536 -0.6644 4.9759
C 0.4697 -0.6374 5.3145
C 0.4957 -0.5929 5.6505
C 0.5160 -0.5289 5.9839
C 0.5275 -0.4962 6.3221
C 0.5265 -0.4584 6.6600
C 0.4887 -0.4472 6.9977
C 0.4416 -0.4232 7.3335
C 0.4243 -0.3755 7.6697
C 0.4106 -0.3095 8.0030
C 0.3780 -0.2683 8.3389
C 0.3827 -0.2526 8.6785
C 0.3700 -0.2075 9.0153
C 0.3419 -0.1751 9.3525
C 0.2966 -0.1656 9.6894
C 0.2765 -0.1728 10.0287
C 0.2562 -0.1639 10.3680
C 0.2325 -0.2012 10.7051
C 0.2084 -0.2342 11.0427
C 0.1845 -0.2921 11.3768
C 0.1217 -0.3409 11.7074
C 0.0580 -0.3345 12.0413
C -0.0021 -0.3352 12.3760
C -0.0620 -0.3256 12.7105
C -0.1141 -0.3406 13.0462
C -0.1860 -0.3749 13.3767
C -0.2193 -0.4346 13.7097
C -0.2779 -0.4706 14.0427
C -0.3162 -0.5076 14.3785
C -0.2912 -0.4961 14.7174
C -0.2703 -0.4754 15.0561
C -0.2016 -0.3799 15.3752
C -0.1560 -0.2540 15.6877
C -0.0854 -0.1411 16.0005
C -0.0413 -0.0629 16.3284
C 0.0000 0.0000 16.6600
C 0.0000 0.0000 17.0000
C 0.0000 0.0000 17.3400
C 0.0000 0.0000 17.6800
C 0.0000 0.0000 18.0200
C 0.0000 0.0000 18.3600
C 0.0000 0.0000 18.7000
C 0.0000 0.0000 19.0400
C 0.0000 0.0000 19.3800
C 0.0000 0.0000 19.7200
C 0.0000 0.0000 20.0600
C 0.0000 0.0000 20.4000
C 0.0000 0.0000 20.7400
C 0.0000 0.0000 21.0800
C 0.0000 0.0000 21.4200
C 0.0000 0.0000 21.7600
C 0.0000 0.0000 22.1000
C 0.0000 0.0000 22.4400
C 0.0000 0.0000 22.7800
C 0.0000 0.0000 23.1200
C 0.0000 0.0000 23.4600
C 0.0000 0.0000 23.8000
C 0.0000 0.0000 24.1400
C 0.0000 0.0000 24.4800
C 0.0000 0.0000 24.8200
C 0.0000 0.0000 25.1600
C 0.0000 0.0000 25.5000
C 0.0000 0.0000 25.8400
C 0.0000 0.0000 26.1800
C 0.0000 0.0000 26.5200
C 0.0000 0.0000 26.8600
C 0.0000 0.0000 27.2000
C 0.0000 0.0000 27.5400
C 0.0000 0.0000 27.8800
C 0.0000 0.0000 28.2200
C 0.0000 0.0000 28.5600
C 0.0000 0.0000 28.9000
C 0.0000 0.0000 29.2400
C 0.0000 0.0000 29.5800
C 0.0000 0.0000 29.9200
C 0.0000 0.0000 30.2600
C 0.0000 0.0000 30.6000
C 0.0000 0.0000 30.9400
C 0.0000 0.0000 31.2800
C 0.0000 0.0000 31.6200
C 0.0000 0.0000 31.9600
C 0.0000 0.0000 32.3000
C 0.0000 0.0000 32.6400
C 0.0000 0.0000 32.9800
C 0.0000 0.0000 33.3200
99
Atoms. Timestep: 11
C -0.7601 -1.2714 0.5215
C -0.8272 -1.2153 0.8500
C -0.9175 -1.1563 1.1724
C -0.9816 -1.1128 1.5035
C -1.0300 -1.0553 1.8351
C -1.0952 -0.9937 2.1630
C -1.1615 -0.9072 2.4851
C -1.2381 -0.7950 2.7968
C -1.3138 -0.6819 3.1084
C -1.3729 -0.6009 3.4333
C -1.4339 -0.5415 3.7624
C -1.4131 -0.4496 4.0891
C -1.3541 -0.3355 4.4039
C -1.2891 -0.2327 4.7214
C -1.2008 -0.1832 5.0460
C -1.0985 -0.1563 5.3691
C -0.9823 -0.1146 5.6859
C -0.8624 -0.0612 5.9995
C -0.7564 -0.0363 6.3217
C -0.6692 -0.0018 6.6485
C -0.6221 0.0138 6.9848
C -0.5944 0.0295 7.3233
C -0.5333 0.0557 7.6568
C -0.4846 0.0868 7.9918
C -0.4537 0.0973 8.3303
C -0.3922 0.0849 8.6644
C -0.3601 0.1067 9.0022
C -0.3485 0.1119 9.3420
C -0.3552 0.0951 9.6815
C -0.3379 0.0689 10.0200
C -0.3225 0.0623 10.3596
C -0.3033 0.0031 10.6939
C -0.2851 -0.0438 11.0301
C -0.2653 -0.1146 11.3621
C -0.2943 -0.1559 11.6983
C -0.3330 -0.1363 12.0355
C -0.3709 -0.1352 12.3734
C -0.3979 -0.1224 12.7121
C -0.4050 -0.1299 13.0519
C -0.4512 -0.1750 13.3857
C -0.4607 -0.2481 13.7177
C -0.4926 -0.2954 14.0528
C -0.5073 -0.3532 14.3876
C -0.4555 -0.3667 14.7233
C -0.3948 -0.3756 15.0578
C -0.2802 -0.3119 15.3715
C -0.1979 -0.2097 15.6852
C -0.1132 -0.1096 15.9988
C -0.0512 -0.0464 16.3271
C 0.0000 0.0000 16.6600
C 0.0000 0.0000 17.0000
C 0.0000 0.0000 17.3400
C 0.0000 0.0000 17.6800
C 0.0000 0.0000 18.0200
C 0.0000 0.0000 18.3600
C 0.0000 0.0000 18.7000
C 0.0000 0.0000 19.0400
C 0.0000 0.0000 19.3800
C 0.0000 0.0000 19.7200
C 0.0000 0.0000 20.0600
C 0.0000 0.0000 20.4000
C 0.0000 0.0000 20.7400
C 0.0000 0.0000 21.0800
C 0.0000 0.0000 21.4200
C 0.0000 0.0000 21.7600
C 0.0000 0.0000 22.1000
C 0.0000 0.0000 22.4400
C 0.0000 0.0000 22.7800
C 0.0000 0.0000 23.1200
C 0.0000 0.0000 23.4600
C 0.0000 0.0000 23.8000
C 0.0000 0.0000 24.1400
C 0.0000 0.0000 24.4800
C 0.0000 0.0000 24.8200
C 0.0000 0.0000 25.1600
C 0.0000 0.0000 25.5000
C 0.0000 0.0000 25.8400
C 0.0000 0.0000 26.1800
C 0.0000 0.0000 26.5200
C 0.0000 0.0000 26.8600
C 0.0000 0.0000 27.2000
C 0.0000 0.0000 27.5400
C 0.0000 0.0000 27.8800
C 0.0000 0.0000 28.2200
C 0.0000 0.0000 28.5600
C 0.0000 0.0000 28.9000
C 0.0000 0.0000 29.2400
C 0.0000 0.0000 29.5800
C 0.0000 0.0000 29.9200
C 0.0000 0.0000 30.2600
C 0.0000 0.0000 30.6000
C 0.0000 0.0000 30.9400
C 0.0000 0.0000 31.2800
C 0.0000 0.0000 31.6200
C 0.0000 0.0000 31.9600
C 0.0000 0.0000 32.3000
C 0.0000 0.0000 32.6400
C 0.0000 0.0000 32.9800
C 0.0000 0.0000 33.3200
99
Atoms. Timestep: 12
C -5.5785 0.9409 1.4842
C -5.4667 0.9630 1.8045
C -5.3688 1.0028 2.1277
C -5.2644 1.0041 2.4513
C -5.1412 1.0213 2.7677
C -5.0417 1.0731 3.0887
C -4.9336 1.1478 3.4022
C -4.8249 1.2564 3.7055
C -4.7149 1.3653 4.0083
C -4.6256 1.4373 4.3284
C -4.5332 1.4769 4.6531
C -4.3804 1.4994 4.9560
C -4.1835 1.5237 5.2322
C -3.9862 1.5349 5.5088
C -3.7948 1.4753 5.7834
C -3.6009 1.3905 6.0495
C -3.3909 1.3155 6.3062
C -3.1745 1.2530 6.5609
C -2.9771 1.1728 6.8258
C -2.7929 1.1044 7.1033
C -2.6205 1.0455 7.3904
C -2.4646 1.0020 7.6894
C -2.2921 0.9595 7.9793
C -2.1351 0.9162 8.2777
C -1.9970 0.8537 8.5821
C -1.8381 0.7612 8.8681
C -1.7095 0.7013 9.1770
C -1.5903 0.6416 9.4898
C -1.5079 0.5943 9.8163
C -1.3983 0.5214 10.1298
C -1.2988 0.4646 10.4499
C -1.2190 0.3588 10.7630
C -1.1442 0.2891 11.0873
C -1.0770 0.1965 11.4074
C -1.0333 0.1328 11.7385
C -0.9773 0.1293 12.0739
C -0.9325 0.1066 12.4101
C -0.8674 0.0920 12.7435
C -0.7911 0.0516 13.0724
C -0.7647 -0.0105 13.4056
C -0.7189 -0.1081 13.7281
C -0.6898 -0.1446 14.0649
C -0.6643 -0.1859 14.4014
C -0.5572 -0.2059 14.7235
C -0.4555 -0.2264 15.0472
C -0.3262 -0.2091 15.3612
C -0.2192 -0.1465 15.6778