99
Atoms. Timestep: 0
C 0.0000 0.0000 0.0000
C 0.0000 0.0000 0.3400
C 0.0000 0.0000 0.6800
C 0.0000 0.0000 1.0200
C 0.0000 0.0000 1.3600
C 0.0000 0.0000 1.7000
C 0.0000 0.0000 2.0400
C 0.0000 0.0000 2.3800
C 0.0000 0.0000 2.7200
C 0.0000 0.0000 3.0600
C 0.0000 0.0000 3.4000
C 0.0000 0.0000 3.7400
C 0.0000 0.0000 4.0800
C 0.0000 0.0000 4.4200
C 0.0000 0.0000 4.7600
C 0.0000 0.0000 5.1000
C 0.0000 0.0000 5.4400
C 0.0000 0.0000 5.7800
C 0.0000 0.0000 6.1200
C 0.0000 0.0000 6.4600
C 0.0000 0.0000 6.8000
C 0.0000 0.0000 7.1400
C 0.0000 0.0000 7.4800
C 0.0000 0.0000 7.8200
C 0.0000 0.0000 8.1600
C 0.0000 0.0000 8.5000
C 0.0000 0.0000 8.8400
C 0.0000 0.0000 9.1800
C 0.0000 0.0000 9.5200
C 0.0000 0.0000 9.8600
C 0.0000 0.0000 10.2000
C 0.0000 0.0000 10.5400
C 0.0000 0.0000 10.8800
C 0.0000 0.0000 11.2200
C 0.0000 0.0000 11.5600
C 0.0000 0.0000 11.9000
C 0.0000 0.0000 12.2400
C 0.0000 0.0000 12.5800
C 0.0000 0.0000 12.9200
C 0.0000 0.0000 13.2600
C 0.0000 0.0000 13.6000
C 0.0000 0.0000 13.9400
C 0.0000 0.0000 14.2800
C 0.0000 0.0000 14.6200
C 0.0000 0.0000 14.9600
C 0.0000 0.0000 15.3000
C 0.0000 0.0000 15.6400
C 0.0000 0.0000 15.9800
C 0.0000 0.0000 16.3200
C 0.0000 0.0000 16.6600
C 0.0000 0.0000 17.0000
C 0.0000 0.0000 17.3400
C 0.0000 0.0000 17.6800
C 0.0000 0.0000 18.0200
C 0.0000 0.0000 18.3600
C 0.0000 0.0000 18.7000
C 0.0000 0.0000 19.0400
C 0.0000 0.0000 19.3800
C 0.0000 0.0000 19.7200
C 0.0000 0.0000 20.0600
C 0.0000 0.0000 20.4000
C 0.0000 0.0000 20.7400
C 0.0000 0.0000 21.0800
C 0.0000 0.0000 21.4200
C 0.0000 0.0000 21.7600
C 0.0000 0.0000 22.1000
C 0.0000 0.0000 22.4400
C 0.0000 0.0000 22.7800
C 0.0000 0.0000 23.1200
C 0.0000 0.0000 23.4600
C 0.0000 0.0000 23.8000
C 0.0000 0.0000 24.1400
C 0.0000 0.0000 24.4800
C 0.0000 0.0000 24.8200
C 0.0000 0.0000 25.1600
C 0.0000 0.0000 25.5000
C 0.0000 0.0000 25.8400
C 0.0000 0.0000 26.1800
C 0.0000 0.0000 26.5200
C 0.0000 0.0000 26.8600
C 0.0000 0.0000 27.2000
C 0.0000 0.0000 27.5400
C 0.0000 0.0000 27.8800
C 0.0000 0.0000 28.2200
C 0.0000 0.0000 28.5600
C 0.0000 0.0000 28.9000
C 0.0000 0.0000 29.2400
C 0.0000 0.0000 29.5800
C 0.0000 0.0000 29.9200
C 0.0000 0.0000 30.2600
C 0.0000 0.0000 30.6000
C 0.0000 0.0000 30.9400
C 0.0000 0.0000 31.2800
C 0.0000 0.0000 31.6200
C 0.0000 0.0000 31.9600
C 0.0000 0.0000 32.3000
C 0.0000 0.0000 32.6400
C 0.0000 0.0000 32.9800
C 0.0000 0.0000 33.3200
99
Atoms. Timestep: 1
C 0.5936 0.2521 0.0180
C 0.5761 0.2446 0.3575
C 0.5587 0.2372 0.6969
C 0.5412 0.2298 1.0364
C 0.5238 0.2224 1.3759
C 0.5063 0.2150 1.7154
C 0.4888 0.2076 2.0548
C 0.4714 0.2002 2.3943
C 0.4539 0.1927 2.7338
C 0.4365 0.1853 3.0732
C 0.4190 0.1779 3.4127
C 0.4015 0.1705 3.7522
C 0.3841 0.1631 4.0916
C 0.3666 0.1557 4.4311
C 0.3492 0.1483 4.7706
C 0.3317 0.1409 5.1101
C 0.3143 0.1334 5.4495
C 0.2968 0.1260 5.7890
C 0.2793 0.1186 6.1285
C 0.2619 0.1112 6.4679
C 0.2444 0.1038 6.8074
C 0.2270 0.0964 7.1469
C 0.2095 0.0890 7.4864
C 0.1920 0.0815 7.8258
C 0.1746 0.0741 8.1653
C 0.1571 0.0667 8.5048
C 0.1397 0.0593 8.8442
C 0.1222 0.0519 9.1837
C 0.1048 0.0445 9.5232
C 0.0873 0.0371 9.8626
C 0.0698 0.0297 10.2021
C 0.0524 0.0222 10.5416
C 0.0349 0.0148 10.8811
C 0.0175 0.0074 11.2205
C 0.0000 0.0000 11.5600
C 0.0000 0.0000 11.9000
C 0.0000 0.0000 12.2400
C 0.0000 0.0000 12.5800
C 0.0000 0.0000 12.9200
C 0.0000 0.0000 13.2600
C 0.0000 0.0000 13.6000
C 0.0000 0.0000 13.9400
C 0.0000 0.0000 14.2800
C 0.0000 0.0000 14.6200
C 0.0000 0.0000 14.9600
C 0.0000 0.0000 15.3000
C 0.0000 0.0000 15.6400
C 0.0000 0.0000 15.9800
C 0.0000 0.0000 16.3200
C 0.0000 0.0000 16.6600
C 0.0000 0.0000 17.0000
C 0.0000 0.0000 17.3400
C 0.0000 0.0000 17.6800
C 0.0000 0.0000 18.0200
C 0.0000 0.0000 18.3600
C 0.0000 0.0000 18.7000
C 0.0000 0.0000 19.0400
C 0.0000 0.0000 19.3800
C 0.0000 0.0000 19.7200
C 0.0000 0.0000 20.0600
C 0.0000 0.0000 20.4000
C 0.0000 0.0000 20.7400
C 0.0000 0.0000 21.0800
C 0.0000 0.0000 21.4200
C 0.0000 0.0000 21.7600
C 0.0000 0.0000 22.1000
C 0.0000 0.0000 22.4400
C 0.0000 0.0000 22.7800
C 0.0000 0.0000 23.1200
C 0.0000 0.0000 23.4600
C 0.0000 0.0000 23.8000
C 0.0000 0.0000 24.1400
C 0.0000 0.0000 24.4800
C 0.0000 0.0000 24.8200
C 0.0000 0.0000 25.1600
C 0.0000 0.0000 25.5000
C 0.0000 0.0000 25.8400
C 0.0000 0.0000 26.1800
C 0.0000 0.0000 26.5200
C 0.0000 0.0000 26.8600
C 0.0000 0.0000 27.2000
C 0.0000 0.0000 27.5400
C 0.0000 0.0000 27.8800
C 0.0000 0.0000 28.2200
C 0.0000 0.0000 28.5600
C 0.0000 0.0000 28.9000
C 0.0000 0.0000 29.2400
C 0.0000 0.0000 29.5800
C 0.0000 0.0000 29.9200
C 0.0000 0.0000 30.2600
C 0.0000 0.0000 30.6000
C 0.0000 0.0000 30.9400
C 0.0000 0.0000 31.2800
C 0.0000 0.0000 31.6200
C 0.0000 0.0000 31.9600
C 0.0000 0.0000 32.3000
C 0.0000 0.0000 32.6400
C 0.0000 0.0000 32.9800
C 0.0000 0.0000 33.3200
99
Atoms. Timestep: 2
C 0.6491 1.6511 0.1567
C 0.5843 1.6071 0.4876
C 0.5254 1.5762 0.8210
C 0.4851 1.5334 1.1559
C 0.4338 1.4861 1.4886
C 0.4046 1.4452 1.8249
C 0.3820 1.3944 2.1603
C 0.3502 1.3683 2.4978
C 0.3184 1.3421 2.8353
C 0.2855 1.2899 3.1697
C 0.2525 1.2374 3.5040
C 0.2196 1.1849 3.8383
C 0.1890 1.1644 4.1763
C 0.1692 1.1332 4.5143
C 0.1453 1.1159 4.8530
C 0.1213 1.0987 5.1917
C 0.0901 1.0683 5.5289
C 0.0589 1.0378 5.8661
C 0.0270 1.0102 6.2034
C -0.0049 0.9956 6.5416
C -0.0365 0.9799 6.8798
C -0.0620 0.9625 7.2184
C -0.0875 0.9451 7.5570
C -0.0975 0.9290 7.8965
C -0.1052 0.9109 8.2359
C -0.1126 0.9109 8.5758
C -0.1179 0.9101 8.9158
C -0.1253 0.8838 9.2547
C -0.1327 0.8576 9.5936
C -0.1208 0.8225 9.9315
C -0.1027 0.7819 10.2686
C -0.0870 0.7436 10.6061
C -0.0733 0.7045 10.9436
C -0.0598 0.6637 11.2809
C -0.0518 0.6206 11.6180
C -0.0428 0.5550 11.9515
C -0.0337 0.4893 12.2850
C -0.0334 0.4157 12.6169
C -0.0356 0.3492 12.9503
C -0.0375 0.2801 13.2832
C -0.0422 0.2177 13.6174
C -0.0484 0.1628 13.9529
C -0.0486 0.1136 14.2893
C -0.0612 0.0753 14.6269
C -0.0552 0.0403 14.9651
C -0.0200 0.0089 15.3018
C -0.0086 -0.0182 15.6405
C -0.0003 -0.0080 15.9802
C 0.0063 0.0011 16.3201
C 0.0000 0.0000 16.6600
C 0.0000 0.0000 17.0000
C 0.0000 0.0000 17.3400
C 0.0000 0.0000 17.6800
C 0.0000 0.0000 18.0200
C 0.0000 0.0000 18.3600
C 0.0000 0.0000 18.7000
C 0.0000 0.0000 19.0400
C 0.0000 0.0000 19.3800
C 0.0000 0.0000 19.7200
C 0.0000 0.0000 20.0600
C 0.0000 0.0000 20.4000
C 0.0000 0.0000 20.7400
C 0.0000 0.0000 21.0800
C 0.0000 0.0000 21.4200
C 0.0000 0.0000 21.7600
C 0.0000 0.0000 22.1000
C 0.0000 0.0000 22.4400
C 0.0000 0.0000 22.7800
C 0.0000 0.0000 23.1200
C 0.0000 0.0000 23.4600
C 0.0000 0.0000 23.8000
C 0.0000 0.0000 24.1400
C 0.0000 0.0000 24.4800
C 0.0000 0.0000 24.8200
C 0.0000 0.0000 25.1600
C 0.0000 0.0000 25.5000
C 0.0000 0.0000 25.8400
C 0.0000 0.0000 26.1800
C 0.0000 0.0000 26.5200
C 0.0000 0.0000 26.8600
C 0.0000 0.0000 27.2000
C 0.0000 0.0000 27.5400
C 0.0000 0.0000 27.8800
C 0.0000 0.0000 28.2200
C 0.0000 0.0000 28.5600
C 0.0000 0.0000 28.9000
C 0.0000 0.0000 29.2400
C 0.0000 0.0000 29.5800
C 0.0000 0.0000 29.9200
C 0.0000 0.0000 30.2600
C 0.0000 0.0000 30.6000
C 0.0000 0.0000 30.9400
C 0.0000 0.0000 31.2800
C 0.0000 0.0000 31.6200
C 0.0000 0.0000 31.9600
C 0.0000 0.0000 32.3000
C 0.0000 0.0000 32.6400
C 0.0000 0.0000 32.9800
C 0.0000 0.0000 33.3200
99
Atoms. Timestep: 3
C -4.5025 0.5465 0.7458
C -4.4398 0.5277 1.0795
C -4.3576 0.5240 1.4094
C -4.2637 0.5264 1.7361
C -4.1666 0.5033 2.0612
C -4.0557 0.4785 2.3816
C -3.9399 0.4429 2.6993
C -3.8294 0.4331 3.0207
C -3.7182 0.4235 3.3418
C -3.6275 0.4014 3.6688
C -3.5369 0.3791 3.9957
C -3.4451 0.3591 4.3225
C -3.3416 0.3620 4.6463
C -3.2298 0.3496 4.9672
C -3.1434 0.3526 5.2960
C -3.0630 0.3679 5.6260
C -2.9699 0.3786 5.9528
C -2.8729 0.3982 6.2781
C -2.7764 0.4206 6.6034
C -2.6886 0.4670 6.9286
C -2.5979 0.5041 7.2541
C -2.5012 0.5392 7.5782
C -2.4008 0.5605 7.9023
C -2.2705 0.5857 8.2153
C -2.1380 0.6091 8.5276
C -2.0051 0.6503 8.8378
C -1.8808 0.7009 9.1502
C -1.7679 0.7314 9.4695
C -1.6624 0.7501 9.7921
C -1.5528 0.7406 10.1138
C -1.4402 0.7293 10.4345
C -1.3290 0.7188 10.7556
C -1.2256 0.6947 11.0786
C -1.1168 0.6663 11.3995
C -1.0147 0.6338 11.7221
C -0.9154 0.5788 12.0426
C -0.8035 0.5233 12.3588
C -0.7290 0.4712 12.6865
C -0.6521 0.4264 13.0146
C -0.5664 0.3740 13.3394
C -0.4883 0.3226 13.6663
C -0.4095 0.2651 13.9920
C -0.3385 0.2070 14.3194
C -0.3018 0.1638 14.6547
C -0.2384 0.1093 14.9842
C -0.1674 0.0693 15.3143
C -0.1196 0.0345 15.6491
C -0.0674 0.0302 15.9851
C -0.0150 0.0165 16.3207
C 0.0000 0.0000 16.6600
C 0.0000 0.0000 17.0000
C 0.0000 0.0000 17.3400
C 0.0000 0.0000 17.6800
C 0.0000 0.0000 18.0200
C 0.0000 0.0000 18.3600
C 0.0000 0.0000 18.7000
C 0.0000 0.0000 19.0400
C 0.0000 0.0000 19.3800
C 0.0000 0.0000 19.7200
C 0.0000 0.0000 20.0600
C 0.0000 0.0000 20.4000
C 0.0000 0.0000 20.7400
C 0.0000 0.0000 21.0800
C 0.0000 0.0000 21.4200
C 0.0000 0.0000 21.7600
C 0.0000 0.0000 22.1000
C 0.0000 0.0000 22.4400
C 0.0000 0.0000 22.7800
C 0.0000 0.0000 23.1200
C 0.0000 0.0000 23.4600
C 0.0000 0.0000 23.8000
C 0.0000 0.0000 24.1400
C 0.0000 0.0000 24.4800
C 0.0000 0.0000 24.8200
C 0.0000 0.0000 25.1600
C 0.0000 0.0000 25.5000
C 0.0000 0.0000 25.8400
C 0.0000 0.0000 26.1800
C 0.0000 0.0000 26.5200
C 0.0000 0.0000 26.8600
C 0.0000 0.0000 27.2000
C 0.0000 0.0000 27.5400
C 0.0000 0.0000 27.8800
C 0.0000 0.0000 28.2200
C 0.0000 0.0000 28.5600
C 0.0000 0.0000 28.9000
C 0.0000 0.0000 29.2400
C 0.0000 0.0000 29.5800
C 0.0000 0.0000 29.9200
C 0.0000 0.0000 30.2600
C 0.0000 0.0000 30.6000
C 0.0000 0.0000 30.9400
C 0.0000 0.0000 31.2800
C 0.0000 0.0000 31.6200
C 0.0000 0.0000 31.9600
C 0.0000 0.0000 32.3000
C 0.0000 0.0000 32.6400
C 0.0000 0.0000 32.9800
C 0.0000 0.0000 33.3200
99
Atoms. Timestep: 4
C -2.7028 -2.0672 0.5342
C -2.6233 -2.0303 0.8627
C -2.5444 -1.9803 1.1897
C -2.4607 -1.9414 1.5169
C -2.3822 -1.9275 1.8474
C -2.2934 -1.9238 2.1756
C -2.2019 -1.9241 2.5031
C -2.1050 -1.8935 2.8275
C -2.0359 -1.8409 3.1563
C -2.0021 -1.7813 3.4893
C -1.9846 -1.7189 3.8230
C -1.9756 -1.6608 4.1579
C -1.9482 -1.5851 4.4883
C -1.9163 -1.5290 4.8221
C -1.8825 -1.4536 5.1519
C -1.8664 -1.3698 5.4810
C -1.8217 -1.2984 5.8104
C -1.7896 -1.2351 6.1429
C -1.7434 -1.1661 6.4726
C -1.6955 -1.0725 6.7959
C -1.6332 -0.9719 7.1147
C -1.5980 -0.8698 7.4371
C -1.5599 -0.7824 7.7634
C -1.4843 -0.7043 8.0856
C -1.4072 -0.6289 8.4080
C -1.3248 -0.5427 8.7264
C -1.2422 -0.4443 9.0412
C -1.1537 -0.3716 9.3613
C -1.0780 -0.2981 9.6846
C -0.9909 -0.2672 10.0118
C -0.9065 -0.2429 10.3402
C -0.8229 -0.2066 10.6678
C -0.7357 -0.1655 10.9938
C -0.6393 -0.1340 11.3183
C -0.5299 -0.0960 11.6380
C -0.4222 -0.0677 11.9593
C -0.3060 -0.0431 12.2779
C -0.2481 0.0104 12.6086
C -0.2136 0.0721 12.9412
C -0.1824 0.1137 13.2772
C -0.1470 0.1373 13.6145
C -0.0974 0.1330 13.9508
C -0.0568 0.1195 14.2881
C -0.0706 0.1046 14.6275
C -0.0579 0.0701 14.9655
C -0.0354 0.0429 15.3037
C -0.0378 0.0117 15.6422
C -0.0233 0.0218 15.9818
C 0.0069 0.0134 16.3203
C 0.0000 0.0000 16.6600
C 0.0000 0.0000 17.0000
C 0.0000 0.0000 17.3400
C 0.0000 0.0000 17.6800
C 0.0000 0.0000 18.0200
C 0.0000 0.0000 18.3600
C 0.0000 0.0000 18.7000
C 0.0000 0.0000 19.0400
C 0.0000 0.0000 19.3800
C 0.0000 0.0000 19.7200
C 0.0000 0.0000 20.0600
C 0.0000 0.0000 20.4000
C 0.0000 0.0000 20.7400
C 0.0000 0.0000 21.0800
C 0.0000 0.0000 21.4200
C 0.0000 0.0000 21.7600
C 0.0000 0.0000 22.1000
C 0.0000 0.0000 22.4400
C 0.0000 0.0000 22.7800
C 0.0000 0.0000 23.1200
C 0.0000 0.0000 23.4600
C 0.0000 0.0000 23.8000
C 0.0000 0.0000 24.1400
C 0.0000 0.0000 24.4800
C 0.0000 0.0000 24.8200
C 0.0000 0.0000 25.1600
C 0.0000 0.0000 25.5000
C 0.0000 0.0000 25.8400
C 0.0000 0.0000 26.1800
C 0.0000 0.0000 26.5200
C 0.0000 0.0000 26.8600
C 0.0000 0.0000 27.2000
C 0.0000 0.0000 27.5400
C 0.0000 0.0000 27.8800
C 0.0000 0.0000 28.2200
C 0.0000 0.0000 28.5600
C 0.0000 0.0000 28.9000
C 0.0000 0.0000 29.2400
C 0.0000 0.0000 29.5800
C 0.0000 0.0000 29.9200
C 0.0000 0.0000 30.2600
C 0.0000 0.0000 30.6000
C 0.0000 0.0000 30.9400
C 0.0000 0.0000 31.2800
C 0.0000 0.0000 31.6200
C 0.0000 0.0000 31.9600
C 0.0000 0.0000 32.3000
C 0.0000 0.0000 32.6400
C 0.0000 0.0000 32.9800
C 0.0000 0.0000 33.3200
99
Atoms. Timestep: 5
C -3.6709 -2.7960 0.9611
C -3.5559 -2.8045 1.2809
C -3.4326 -2.7911 1.5975
C -3.2767 -2.7789 1.8994
C -3.1504 -2.7747 2.2150
C -3.0158 -2.7774 2.5273
C -2.8831 -2.7775 2.8403
C -2.7524 -2.7446 3.1524
C -2.6524 -2.6966 3.4738
C -2.5874 -2.6506 3.8044
C -2.5511 -2.5955 4.1379
C -2.5195 -2.5506 4.4735
C -2.4631 -2.4839 4.8020
C -2.3994 -2.4360 5.1326
C -2.3400 -2.3689 5.4606
C -2.2989 -2.2945 5.7898
C -2.2501 -2.2219 6.1183
C -2.2076 -2.1389 6.4453
C -2.1505 -2.0484 6.7680
C -2.1032 -1.9218 7.0800
C -2.0645 -1.7806 7.3868
C -2.0481 -1.6487 7.6998
C -1.9858 -1.5343 8.0138
C -1.9117 -1.4163 8.3240
C -1.8358 -1.3009 8.6346
C -1.7535 -1.1748 8.9395
C -1.6716 -1.0365 9.2391
C -1.5817 -0.9226 9.5466
C -1.5045 -0.8087 9.8575
C -1.4129 -0.7402 10.1777
C -1.3235 -0.6785 10.4998
C -1.2252 -0.6089 10.8178
C -1.1128 -0.5355 11.1302
C -0.9969 -0.4879 11.4463
C -0.8446 -0.4189 11.7423
C -0.7154 -0.3342 12.0451
C -0.5779 -0.2462 12.3434
C -0.5097 -0.1380 12.6584
C -0.4362 -0.0320 12.9730
C -0.3857 0.0634 13.2954
C -0.3380 0.1100 13.6288
C -0.2715 0.1025 13.9622
C -0.2132 0.0898 14.2969
C -0.2064 0.0798 14.6367
C -0.1754 0.0477 14.9737
C -0.1340 0.0219 15.3102
C -0.1110 -0.0039 15.6484
C -0.0665 0.0151 15.9850
C -0.0117 0.0151 16.3205
C 0.0000 0.0000 16.6600
C 0.0000 0.0000 17.0000
C 0.0000 0.0000 17.3400
C 0.0000 0.0000 17.6800
C 0.0000 0.0000 18.0200
C 0.0000 0.0000 18.3600
C 0.0000 0.0000 18.7000
C 0.0000 0.0000 19.0400
C 0.0000 0.0000 19.3800
C 0.0000 0.0000 19.7200
C 0.0000 0.0000 20.0600
C 0.0000 0.0000 20.4000
C 0.0000 0.0000 20.7400
C 0.0000 0.0000 21.0800
C 0.0000 0.0000 21.4200
C 0.0000 0.0000 21.7600
C 0.0000 0.0000 22.1000
C 0.0000 0.0000 22.4400
C 0.0000 0.0000 22.7800
C 0.0000 0.0000 23.1200
C 0.0000 0.0000 23.4600
C 0.0000 0.0000 23.8000
C 0.0000 0.0000 24.1400
C 0.0000 0.0000 24.4800
C 0.0000 0.0000 24.8200
C 0.0000 0.0000 25.1600
C 0.0000 0.0000 25.5000
C 0.0000 0.0000 25.8400
C 0.0000 0.0000 26.1800
C 0.0000 0.0000 26.5200
C 0.0000 0.0000 26.8600
C 0.0000 0.0000 27.2000
C 0.0000 0.0000 27.5400
C 0.0000 0.0000 27.8800
C 0.0000 0.0000 28.2200
C 0.0000 0.0000 28.5600
C 0.0000 0.0000 28.9000
C 0.0000 0.0000 29.2400
C 0.0000 0.0000 29.5800
C 0.0000 0.0000 29.9200
C 0.0000 0.0000 30.2600
C 0.0000 0.0000 30.6000
C 0.0000 0.0000 30.9400
C 0.0000 0.0000 31.2800
C 0.0000 0.0000 31.6200
C 0.0000 0.0000 31.9600
C 0.0000 0.0000 32.3000
C 0.0000 0.0000 32.6400
C 0.0000 0.0000 32.9800
C 0.0000 0.0000 33.3200
99
Atoms. Timestep: 6
C -2.4264 0.0530 0.5375
C -2.4783 -0.0062 0.8683
C -2.5174 -0.0503 1.2032
C -2.5214 -0.1013 1.5393
C -2.5377 -0.1776 1.8702
C -2.5464 -0.2621 2.1994
C -2.5447 -0.3541 2.5267
C -2.5368 -0.4145 2.8612
C -2.5523 -0.4767 3.1952
C -2.5940 -0.5450 3.5256
C -2.6253 -0.5581 3.8639
C -2.6519 -0.5682 4.2027
C -2.6339 -0.5624 4.5422
C -2.5930 -0.5671 4.8797
C -2.5536 -0.5523 5.2171
C -2.5339 -0.5080 5.5536
C -2.5077 -0.4663 5.8900
C -2.4783 -0.4109 6.2242
C -2.4360 -0.3534 6.5566
C -2.3801 -0.2698 6.8814
C -2.3142 -0.1844 7.2038
C -2.2724 -0.1033 7.5313
C -2.1912 -0.0517 7.8575
C -2.0977 0.0012 8.1800
C -2.0030 0.0513 8.5027
C -1.8995 0.1109 8.8210
C -1.8085 0.1693 9.1434
C -1.7168 0.2147 9.4676
C -1.6219 0.2611 9.7908
C -1.5217 0.2593 10.1157
C -1.4210 0.2522 10.4403
C -1.3184 0.2353 10.7641
C -1.2011 0.2200 11.0828
C -1.0921 0.1802 11.4024
C -0.9487 0.1490 11.7091
C -0.8225 0.1290 12.0242
C -0.6810 0.1119 12.3329
C -0.5913 0.1492 12.6587
C -0.5105 0.2146 12.9824
C -0.4534 0.2701 13.3130
C -0.4021 0.2760 13.6490
C -0.3381 0.2276 13.9794
C -0.2648 0.1877 14.3090
C -0.2495 0.1508 14.6466
C -0.2045 0.1003 14.9799
C -0.1441 0.0628 15.3124
C -0.1002 0.0275 15.6476
C -0.0561 0.0349 15.9847
C -0.0071 0.0251 16.3210
C 0.0000 0.0000 16.6600
C 0.0000 0.0000 17.0000
C 0.0000 0.0000 17.3400
C 0.0000 0.0000 17.6800
C 0.0000 0.0000 18.0200
C 0.0000 0.0000 18.3600
C 0.0000 0.0000 18.7000
C 0.0000 0.0000 19.0400
C 0.0000 0.0000 19.3800
C 0.0000 0.0000 19.7200
C 0.0000 0.0000 20.0600
C 0.0000 0.0000 20.4000
C 0.0000 0.0000 20.7400
C 0.0000 0.0000 21.0800
C 0.0000 0.0000 21.4200
C 0.0000 0.0000 21.7600
C 0.0000 0.0000 22.1000
C 0.0000 0.0000 22.4400
C 0.0000 0.0000 22.7800
C 0.0000 0.0000 23.1200
C 0.0000 0.0000 23.4600
C 0.0000 0.0000 23.8000
C 0.0000 0.0000 24.1400
C 0.0000 0.0000 24.4800
C 0.0000 0.0000 24.8200
C 0.0000 0.0000 25.1600
C 0.0000 0.0000 25.5000
C 0.0000 0.0000 25.8400
C 0.0000 0.0000 26.1800
C 0.0000 0.0000 26.5200
C 0.0000 0.0000 26.8600
C 0.0000 0.0000 27.2000
C 0.0000 0.0000 27.5400
C 0.0000 0.0000 27.8800
C 0.0000 0.0000 28.2200
C 0.0000 0.0000 28.5600
C 0.0000 0.0000 28.9000
C 0.0000 0.0000 29.2400
C 0.0000 0.0000 29.5800
C 0.0000 0.0000 29.9200
C 0.0000 0.0000 30.2600
C 0.0000 0.0000 30.6000
C 0.0000 0.0000 30.9400
C 0.0000 0.0000 31.2800
C 0.0000 0.0000 31.6200
C 0.0000 0.0000 31.9600
C 0.0000 0.0000 32.3000
C 0.0000 0.0000 32.6400
C 0.0000 0.0000 32.9800
C 0.0000 0.0000 33.3200
99
Atoms. Timestep: 7
C -1.6484 1.3941 0.5367
C -1.7279 1.2869 0.8494
C -1.8046 1.2102 1.1716
C -1.8535 1.1111 1.4932
C -1.9166 1.0074 1.8108
C -1.9670 0.8990 2.1291
C -2.0214 0.7868 2.4454
C -2.0753 0.6868 2.7658
C -2.1514 0.5935 3.0838
C -2.2531 0.5079 3.3967
C -2.3080 0.4720 3.7304
C -2.3574 0.4367 4.0649
C -2.3356 0.3813 4.3996
C -2.2798 0.3256 4.7304
C -2.2117 0.3230 5.0635
C -2.1483 0.3554 5.3959
C -2.0801 0.3827 5.7279
C -2.0318 0.4131 6.0631
C -1.9864 0.4349 6.3993
C -1.9190 0.4771 6.7299
C -1.8598 0.5148 7.0626
C -1.8170 0.5385 7.3990
C -1.7696 0.5319 7.7357
C -1.7100 0.5210 8.0702
C -1.6477 0.5169 8.4044
C -1.5725 0.5171 8.7360
C -1.5041 0.5030 9.0688
C -1.4338 0.4860 9.4010
C -1.3615 0.4627 9.7324
C -1.2921 0.4573 10.0652
C -1.2246 0.4458 10.3982
C -1.1386 0.4368 10.7271
C -1.0378 0.4309 11.0517
C -0.9366 0.4006 11.3749
C -0.8189 0.3593 11.6912
C -0.7071 0.3215 12.0100
C -0.5964 0.2752 12.3282
C -0.5201 0.2941 12.6589
C -0.4537 0.3421 12.9889
C -0.4125 0.3833 13.3239
C -0.3838 0.3760 13.6626
C -0.3417 0.3204 13.9954
C -0.2680 0.2435 14.3183
C -0.2410 0.1683 14.6487
C -0.2045 0.1003 14.9799
C -0.1441 0.0628 15.3124
C -0.1002 0.0275 15.6476
C -0.0561 0.0349 15.9847
C -0.0071 0.0251 16.3210
C 0.0000 0.0000 16.6600
C 0.0000 0.0000 17.0000
C 0.0000 0.0000 17.3400
C 0.0000 0.0000 17.6800
C 0.0000 0.0000 18.0200
C 0.0000 0.0000 18.3600
C 0.0000 0.0000 18.7000
C 0.0000 0.0000 19.0400
C 0.0000 0.0000 19.3800
C 0.0000 0.0000 19.7200
C 0.0000 0.0000 20.0600
C 0.0000 0.0000 20.4000
C 0.0000 0.0000 20.7400
C 0.0000 0.0000 21.0800
C 0.0000 0.0000 21.4200
C 0.0000 0.0000 21.7600
C 0.0000 0.0000 22.1000
C 0.0000 0.0000 22.4400
C 0.0000 0.0000 22.7800
C 0.0000 0.0000 23.1200
C 0.0000 0.0000 23.4600
C 0.0000 0.0000 23.8000
C 0.0000 0.0000 24.1400
C 0.0000 0.0000 24.4800
C 0.0000 0.0000 24.8200
C 0.0000 0.0000 25.1600
C 0.0000 0.0000 25.5000
C 0.0000 0.0000 25.8400
C 0.0000 0.0000 26.1800
C 0.0000 0.0000 26.5200
C 0.0000 0.0000 26.8600
C 0.0000 0.0000 27.2000
C 0.0000 0.0000 27.5400
C 0.0000 0.0000 27.8800
C 0.0000 0.0000 28.2200
C 0.0000 0.0000 28.5600
C 0.0000 0.0000 28.9000
C 0.0000 0.0000 29.2400
C 0.0000 0.0000 29.5800
C 0.0000 0.0000 29.9200
C 0.0000 0.0000 30.2600
C 0.0000 0.0000 30.6000
C 0.0000 0.0000 30.9400
C 0.0000 0.0000 31.2800
C 0.0000 0.0000 31.6200
C 0.0000 0.0000 31.9600
C 0.0000 0.0000 32.3000
C 0.0000 0.0000 32.6400
C 0.0000 0.0000 32.9800
C 0.0000 0.0000 33.3200
99
Atoms. Timestep: 8
C -2.0575 1.7577 0.6490
C -2.0959 1.6400 0.9657
C -2.1437 1.5613 1.2930
C -2.1585 1.4689 1.6198
C -2.1953 1.3523 1.9371
C -2.2280 1.2343 2.2543
C -2.2633 1.1114 2.5693
C -2.3197 1.0053 2.8874
C -2.3792 0.9075 3.2075
C -2.4535 0.7896 3.5177
C -2.4948 0.7310 3.8500
C -2.5259 0.6553 4.1800
C -2.4823 0.5888 4.5106
C -2.4180 0.5400 4.8409
C -2.3499 0.5596 5.1734
C -2.2953 0.6119 5.5049
C -2.2348 0.6605 5.8359
C -2.1844 0.7338 6.1641
C -2.1292 0.7989 6.4932
C -2.0574 0.8880 6.8133
C -1.9867 0.9612 7.1377
C -1.9295 1.0032 7.4703
C -1.8808 0.9958 7.8067
C -1.7887 0.9696 8.1329
C -1.6942 0.9503 8.4589
C -1.6092 0.9654 8.7878
C -1.5102 0.9432 9.1123
C -1.4090 0.9184 9.4360
C -1.3055 0.8766 9.7571
C -1.2233 0.8486 10.0858
C -1.1663 0.8034 10.4179
C -1.0912 0.7613 10.7469
C -1.0201 0.7143 11.0760
C -0.9655 0.6758 11.4094
C -0.8938 0.6258 11.7380
C -0.8000 0.5852 12.0622
C -0.7006 0.5419 12.3845
C -0.6405 0.5523 12.7190
C -0.5886 0.5924 13.0526
C -0.5449 0.6096 13.3893
C -0.5160 0.5789 13.7267
C -0.4686 0.4910 14.0517
C -0.3834 0.3895 14.3648
C -0.3390 0.2854 14.6854
C -0.2789 0.1791 15.0027
C -0.1957 0.1001 15.3228
C -0.1327 0.0522 15.6535
C -0.0696 0.0467 15.9875
C -0.0071 0.0251 16.3210
C 0.0000 0.0000 16.6600
C 0.0000 0.0000 17.0000
C 0.0000 0.0000 17.3400
C 0.0000 0.0000 17.6800
C 0.0000 0.0000 18.0200
C 0.0000 0.0000 18.3600
C 0.0000 0.0000 18.7000
C 0.0000 0.0000 19.0400
C 0.0000 0.0000 19.3800
C 0.0000 0.0000 19.7200
C 0.0000 0.0000 20.0600
C 0.0000 0.0000 20.4000
C 0.0000 0.0000 20.7400
C 0.0000 0.0000 21.0800
C 0.0000 0.0000 21.4200
C 0.0000 0.0000 21.7600
C 0.0000 0.0000 22.1000
C 0.0000 0.0000 22.4400
C 0.0000 0.0000 22.7800
C 0.0000 0.0000 23.1200
C 0.0000 0.0000 23.4600
C 0.0000 0.0000 23.8000
C 0.0000 0.0000 24.1400
C 0.0000 0.0000 24.4800
C 0.0000 0.0000 24.8200
C 0.0000 0.0000 25.1600
C 0.0000 0.0000 25.5000
C 0.0000 0.0000 25.8400
C 0.0000 0.0000 26.1800
C 0.0000 0.0000 26.5200
C 0.0000 0.0000 26.8600
C 0.0000 0.0000 27.2000
C 0.0000 0.0000 27.5400
C 0.0000 0.0000 27.8800
C 0.0000 0.0000 28.2200
C 0.0000 0.0000 28.5600
C 0.0000 0.0000 28.9000
C 0.0000 0.0000 29.2400
C 0.0000 0.0000 29.5800
C 0.0000 0.0000 29.9200
C 0.0000 0.0000 30.2600
C 0.0000 0.0000 30.6000
C 0.0000 0.0000 30.9400
C 0.0000 0.0000 31.2800
C 0.0000 0.0000 31.6200
C 0.0000 0.0000 31.9600
C 0.0000 0.0000 32.3000
C 0.0000 0.0000 32.6400
C 0.0000 0.0000 32.9800
C 0.0000 0.0000 33.3200
99
Atoms. Timestep: 9
C 0.7448 -0.1770 0.6610
C 0.6024 -0.2508 0.9609
C 0.4467 -0.2853 1.2611
C 0.3227 -0.3095 1.5768
C 0.2238 -0.3624 1.8977
C 0.1277 -0.3986 2.2218
C 0.0302 -0.4318 2.5459
C -0.0875 -0.4476 2.8645
C -0.2025 -0.4550 3.1843
C -0.3427 -0.4802 3.4931
C -0.4612 -0.4658 3.8114
C -0.5888 -0.4575 4.1265
C -0.6269 -0.4321 4.4634
C -0.6425 -0.3913 4.8005
C -0.6612 -0.2920 5.1252
C -0.6883 -0.1606 5.4376
C -0.7223 -0.0308 5.7500
C -0.7458 0.1090 6.0591
C -0.7695 0.2324 6.3750
C -0.7714 0.3725 6.6847
C -0.7628 0.5219 6.9901
C -0.7592 0.6293 7.3126
C -0.7676 0.6894 7.6472
C -0.7328 0.7278 7.9832
C -0.6881 0.7507 8.3195
C -0.6497 0.8217 8.6497
C -0.6198 0.8630 8.9859
C -0.5819 0.8885 9.3228
C -0.5442 0.8921 9.6607
C -0.5439 0.8927 10.0007
C -0.5410 0.8790 10.3404
C -0.5248 0.8346 10.6771
C -0.5127 0.7854 11.0133
C -0.5173 0.7450 11.3509
C -0.5045 0.6927 11.6866
C -0.4678 0.6317 12.0190
C -0.4277 0.5701 12.3510
C -0.4191 0.5652 12.6909
C -0.4026 0.5705 13.0304
C -0.3905 0.5757 13.3702
C -0.3969 0.5343 13.7076
C -0.3768 0.4335 14.0317
C -0.3183 0.3155 14.3451
C -0.2967 0.2223 14.6714
C -0.2506 0.1246 14.9938
C -0.1853 0.0568 15.3205
C -0.1204 0.0088 15.6508
C -0.0645 0.0255 15.9857
C -0.0091 0.0269 16.3212
C 0.0000 0.0000 16.6600
C 0.0000 0.0000 17.0000
C 0.0000 0.0000 17.3400
C 0.0000 0.0000 17.6800
C 0.0000 0.0000 18.0200
C 0.0000 0.0000 18.3600
C 0.0000 0.0000 18.7000
C 0.0000 0.0000 19.0400
C 0.0000 0.0000 19.3800
C 0.0000 0.0000 19.7200
C 0.0000 0.0000 20.0600
C 0.0000 0.0000 20.4000
C 0.0000 0.0000 20.7400
C 0.0000 0.0000 21.0800
C 0.0000 0.0000 21.4200
C 0.0000 0.0000 21.7600
C 0.0000 0.0000 22.1000
C 0.0000 0.0000 22.4400
C 0.0000 0.0000 22.7800
C 0.0000 0.0000 23.1200
C 0.0000 0.0000 23.4600
C 0.0000 0.0000 23.8000
C 0.0000 0.0000 24.1400
C 0.0000 0.0000 24.4800
C 0.0000 0.0000 24.8200
C 0.0000 0.0000 25.1600
C 0.0000 0.0000 25.5000
C 0.0000 0.0000 25.8400
C 0.0000 0.0000 26.1800
C 0.0000 0.0000 26.5200
C 0.0000 0.0000 26.8600
C 0.0000 0.0000 27.2000
C 0.0000 0.0000 27.5400
C 0.0000 0.0000 27.8800
C 0.0000 0.0000 28.2200
C 0.0000 0.0000 28.5600
C 0.0000 0.0000 28.9000
C 0.0000 0.0000 29.2400
C 0.0000 0.0000 29.5800
C 0.0000 0.0000 29.9200
C 0.0000 0.0000 30.2600
C 0.0000 0.0000 30.6000
C 0.0000 0.0000 30.9400
C 0.0000 0.0000 31.2800
C 0.0000 0.0000 31.6200
C 0.0000 0.0000 31.9600
C 0.0000 0.0000 32.3000
C 0.0000 0.0000 32.6400
C 0.0000 0.0000 32.9800
C 0.0000 0.0000 33.3200
99
Atoms. Timestep: 10
C 0.6149 3.2115 0.9603
C 0.4660 3.0302 1.2063
C 0.3002 2.8847 1.4650
C 0.1587 2.7562 1.7463
C 0.0472 2.6323 2.0426
C -0.0635 2.5342 2.3487
C -0.1630 2.4121 2.6500
C -0.2918 2.2911 2.9406
C -0.4343 2.2034 3.2365
C -0.6051 2.0771 3.5020
C -0.7568 1.9886 3.7931
C -0.9159 1.8954 4.0787
C -0.9694 1.8091 4.4033
C -1.0030 1.7376 4.7339
C -1.0248 1.7066 5.0718
C -1.0378 1.7005 5.4115
C -1.0711 1.6803 5.7493
C -1.0997 1.6677 6.0878
C -1.1182 1.6302 6.4253
C -1.1182 1.6134 6.7648
C -1.1282 1.6162 7.1047
C -1.1379 1.5734 7.4418
C -1.1314 1.5002 7.7738
C -1.0820 1.4391 8.1046
C -1.0372 1.3812 8.4366
C -1.0205 1.3534 8.7751
C -0.9817 1.3122 9.1104
C -0.9321 1.2639 9.4432
C -0.8892 1.2193 9.7775
C -0.8922 1.1623 10.1127
C -0.8897 1.0922 10.4454
C -0.8701 0.9943 10.7704
C -0.8489 0.9058 11.0980
C -0.8010 0.8275 11.4254
C -0.7401 0.7474 11.7502
C -0.6550 0.6622 12.0681
C -0.5665 0.5770 12.3851
C -0.5396 0.5510 12.7231
C -0.5147 0.5472 13.0621
C -0.4974 0.5419 13.4017
C -0.4922 0.4750 13.7350
C -0.4601 0.3614 14.0538
C -0.3897 0.2318 14.3602
C -0.3560 0.1258 14.6815
C -0.2898 0.0219 14.9983
C -0.2101 -0.0228 15.3258
C -0.1251 -0.0608 15.6528
C -0.0690 -0.0238 15.9861
C -0.0116 0.0024 16.3202
C 0.0000 0.0000 16.6600
C 0.0000 0.0000 17.0000
C 0.0000 0.0000 17.3400
C 0.0000 0.0000 17.6800
C 0.0000 0.0000 18.0200
C 0.0000 0.0000 18.3600
C 0.0000 0.0000 18.7000
C 0.0000 0.0000 19.0400
C 0.0000 0.0000 19.3800
C 0.0000 0.0000 19.7200
C 0.0000 0.0000 20.0600
C 0.0000 0.0000 20.4000
C 0.0000 0.0000 20.7400
C 0.0000 0.0000 21.0800
C 0.0000 0.0000 21.4200
C 0.0000 0.0000 21.7600
C 0.0000 0.0000 22.1000
C 0.0000 0.0000 22.4400
C 0.0000 0.0000 22.7800
C 0.0000 0.0000 23.1200
C 0.0000 0.0000 23.4600
C 0.0000 0.0000 23.8000
C 0.0000 0.0000 24.1400
C 0.0000 0.0000 24.4800
C 0.0000 0.0000 24.8200
C 0.0000 0.0000 25.1600
C 0.0000 0.0000 25.5000
C 0.0000 0.0000 25.8400
C 0.0000 0.0000 26.1800
C 0.0000 0.0000 26.5200
C 0.0000 0.0000 26.8600
C 0.0000 0.0000 27.2000
C 0.0000 0.0000 27.5400
C 0.0000 0.0000 27.8800
C 0.0000 0.0000 28.2200
C 0.0000 0.0000 28.5600
C 0.0000 0.0000 28.9000
C 0.0000 0.0000 29.2400
C 0.0000 0.0000 29.5800
C 0.0000 0.0000 29.9200
C 0.0000 0.0000 30.2600
C 0.0000 0.0000 30.6000
C 0.0000 0.0000 30.9400
C 0.0000 0.0000 31.2800
C 0.0000 0.0000 31.6200
C 0.0000 0.0000 31.9600
C 0.0000 0.0000 32.3000
C 0.0000 0.0000 32.6400
C 0.0000 0.0000 32.9800
C 0.0000 0.0000 33.3200
99
Atoms. Timestep: 11
C 1.9273 5.5340 1.8502
C 1.7846 5.3050 2.0571
C 1.6231 5.0988 2.2740
C 1.4785 4.9116 2.5181
C 1.3484 4.7180 2.7656
C 1.2091 4.5476 3.0247
C 1.0953 4.3655 3.2883
C 0.9466 4.1692 3.5228
C 0.7735 3.9997 3.7613
C 0.5934 3.8026 3.9718
C 0.4140 3.6330 4.2056
C 0.2485 3.4753 4.4573
C 0.1771 3.3470 4.7639
C 0.1192 3.2372 5.0805
C 0.0539 3.1466 5.4016
C -0.0092 3.0817 5.7293
C -0.0875 2.9990 6.0497
C -0.1627 2.9274 6.3735
C -0.2316 2.8314 6.6923
C -0.2827 2.7482 7.0180
C -0.3277 2.6913 7.3501
C -0.3551 2.6342 7.6842
C -0.3651 2.5427 8.0115
C -0.3455 2.4410 8.3353
C -0.3373 2.3264 8.6553
C -0.3488 2.2385 8.9836
C -0.3753 2.1283 9.3041
C -0.3895 2.0173 9.6252
C -0.4106 1.9095 9.9469
C -0.4646 1.7837 10.2582
C -0.5147 1.6643 10.5725
C -0.5572 1.5347 10.8840
C -0.5921 1.4129 11.1995
C -0.5872 1.2883 11.5158
C -0.5690 1.1623 11.8311
C -0.5079 1.0457 12.1445
C -0.4156 0.9064 12.4406
C -0.3823 0.8239 12.7688
C -0.3503 0.7631 13.1018
C -0.3258 0.7011 13.4352
C -0.3211 0.5897 13.7564
C -0.3075 0.4375 14.0601
C -0.2559 0.2872 14.3607
C -0.2430 0.1582 14.6750
C -0.2038 0.0394 14.9912
C -0.1437 -0.0304 15.3184
C -0.0728 -0.0716 15.6484
C -0.0340 -0.0310 15.9837
C 0.0060 -0.0013 16.3201
C 0.0000 0.0000 16.6600
C 0.0000 0.0000 17.0000
C 0.0000 0.0000 17.3400
C 0.0000 0.0000 17.6800
C 0.0000 0.0000 18.0200
C 0.0000 0.0000 18.3600
C 0.0000 0.0000 18.7000
C 0.0000 0.0000 19.0400
C 0.0000 0.0000 19.3800
C 0.0000 0.0000 19.7200
C 0.0000 0.0000 20.0600
C 0.0000 0.0000 20.4000
C 0.0000 0.0000 20.7400
C 0.0000 0.0000 21.0800
C 0.0000 0.0000 21.4200
C 0.0000 0.0000 21.7600
C 0.0000 0.0000 22.1000
C 0.0000 0.0000 22.4400
C 0.0000 0.0000 22.7800
C 0.0000 0.0000 23.1200
C 0.0000 0.0000 23.4600
C 0.0000 0.0000 23.8000
C 0.0000 0.0000 24.1400
C 0.0000 0.0000 24.4800
C 0.0000 0.0000 24.8200
C 0.0000 0.0000 25.1600
C 0.0000 0.0000 25.5000
C 0.0000 0.0000 25.8400
C 0.0000 0.0000 26.1800
C 0.0000 0.0000 26.5200
C 0.0000 0.0000 26.8600
C 0.0000 0.0000 27.2000
C 0.0000 0.0000 27.5400
C 0.0000 0.0000 27.8800
C 0.0000 0.0000 28.2200
C 0.0000 0.0000 28.5600
C 0.0000 0.0000 28.9000
C 0.0000 0.0000 29.2400
C 0.0000 0.0000 29.5800
C 0.0000 0.0000 29.9200
C 0.0000 0.0000 30.2600
C 0.0000 0.0000 30.6000
C 0.0000 0.0000 30.9400
C 0.0000 0.0000 31.2800
C 0.0000 0.0000 31.6200
C 0.0000 0.0000 31.9600
C 0.0000 0.0000 32.3000
C 0.0000 0.0000 32.6400
C 0.0000 0.0000 32.9800
C 0.0000 0.0000 33.3200
99
Atoms. Timestep: 12
C -1.0729 6.5549 2.0069
C -1.1405 6.3019 2.2237
C -1.2240 6.0667 2.4546
C -1.2853 5.8499 2.7093
C -1.3282 5.6290 2.9641
C -1.3778 5.4315 3.2364
C -1.3990 5.2216 3.5030
C -1.4560 4.9967 3.7515
C -1.5382 4.7949 4.0126
C -1.6316 4.5664 4.2463
C -1.7292 4.3617 4.4997
C -1.8132 4.1634 4.7628
C -1.8065 3.9937 5.0573
C -1.7830 3.8378 5.3586
C -1.7874 3.6860 5.6627
C -1.7887 3.5538 5.9760
C -1.7884 3.4108 6.2845
C -1.7825 3.2852 6.6004
C -1.7711 3.1374 6.9063
C -1.7408 3.0019 7.2167
C -1.7069 2.8875 7.5351
C -1.6617 2.7846 7.8559
C -1.6006 2.6517 8.1629
C -1.5044 2.5353 8.4675
C -1.3993 2.4175 8.7686
C -1.3060 2.3289 9.0833
C -1.2270 2.2165 9.3943
C -1.1550 2.0944 9.7034
C -1.0989 1.9614 10.0113
C -1.0826 1.8086 10.3145
C -1.0578 1.6622 10.6204
C -1.0253 1.5113 10.9233
C -0.9981 1.3637 11.2284
C -0.9344 1.2383 11.5379
C -0.8556 1.1022 11.8394
C -0.7478 0.9933 12.1429
C -0.6170 0.8793 12.4353
C -0.5415 0.8227 12.7619
C -0.4884 0.7833 13.0954
C -0.4414 0.7395 13.4293